2
Lattice="8.00000000 0.00000000 0.00000000 0.00000000 8.00000000 0.00000000 0.00000000 0.00000000 8.00000000 " Properties=species:S:1:pos:R:3:forces:R:3:energies:R:1 energy=-6.09449678 pbc="T T T"
H 0.50000000 0.50000000 0.50000000 0.00000000 0.00000000 4.16932499  0.00000000
H 0.50000000 0.50000000 0.62500000 0.00000000 0.00000000 -4.16932499  0.00000000
2
Lattice="8.00000000 0.00000000 0.00000000 0.00000000 8.00000000 0.00000000 0.00000000 0.00000000 8.00000000 " Properties=species:S:1:pos:R:3:forces:R:3:energies:R:1 energy=-6.40276476 pbc="T T T"
H 0.50000000 0.50000000 0.50502848 -0.00000000 0.00000000 3.42191657  0.00000000
H 0.50000000 0.50000000 0.61997152 -0.00000000 0.00000000 -3.42191657  0.00000000
2
Lattice="8.00000000 0.00000000 0.00000000 0.00000000 8.00000000 0.00000000 0.00000000 0.00000000 8.00000000 " Properties=species:S:1:pos:R:3:forces:R:3:energies:R:1 energy=-6.72472192 pbc="T T T"
H 0.50000000 0.50000000 0.51418402 -0.00000000 -0.00000000 0.56282556  0.00000000
H 0.50000000 0.50000000 0.61081598 0.00000000 0.00000000 -0.56282556  0.00000000
2
Lattice="8.00000000 0.00000000 0.00000000 0.00000000 8.00000000 0.00000000 0.00000000 0.00000000 8.00000000 " Properties=species:S:1:pos:R:3:forces:R:3:energies:R:1 energy=-6.29626680 pbc="T T T"
H 0.50000000 0.50000000 0.52401837 0.00000000 0.00000000 -7.37220927  0.00000000
H 0.50000000 0.50000000 0.60098163 0.00000000 -0.00000000 7.37220927  0.00000000
2
Lattice="8.00000000 0.00000000 0.00000000 0.00000000 8.00000000 0.00000000 0.00000000 0.00000000 8.00000000 " Properties=species:S:1:pos:R:3:forces:R:3:energies:R:1 energy=-6.17529336 pbc="T T T"
H 0.50000000 0.50000000 0.52496134 0.00000000 0.00000000 -8.68748313  0.00000000
H 0.50000000 0.50000000 0.60003866 -0.00000000 -0.00000000 8.68748313  0.00000000
2
Lattice="8.00000000 0.00000000 0.00000000 0.00000000 8.00000000 0.00000000 0.00000000 0.00000000 8.00000000 " Properties=species:S:1:pos:R:3:forces:R:3:energies:R:1 energy=-6.72997032 pbc="T T T"
H 0.50000000 0.50000000 0.51542663 -0.00000000 -0.00000000 -0.05685799  0.00000000
H 0.50000000 0.50000000 0.60957337 0.00000000 0.00000000 0.05685799  0.00000000
2
Lattice="8.00000000 0.00000000 0.00000000 0.00000000 8.00000000 0.00000000 0.00000000 0.00000000 8.00000000 " Properties=species:S:1:pos:R:3:forces:R:3:energies:R:1 energy=-6.44526874 pbc="T T T"
H 0.50000000 0.50000000 0.50582335 -0.00000000 -0.00000000 3.26083939  0.00000000
H 0.50000000 0.50000000 0.61917665 0.00000000 0.00000000 -3.26083939  0.00000000
2
Lattice="8.00000000 0.00000000 0.00000000 0.00000000 8.00000000 0.00000000 0.00000000 0.00000000 8.00000000 " Properties=species:S:1:pos:R:3:forces:R:3:energies:R:1 energy=-6.10466431 pbc="T T T"
H 0.50000000 0.50000000 0.50015286 -0.00000000 -0.00000000 4.15239171  0.00000000
H 0.50000000 0.50000000 0.62484714 -0.00000000 0.00000000 -4.15239171  0.00000000
2
Lattice="8.00000000 0.00000000 0.00000000 0.00000000 8.00000000 0.00000000 0.00000000 0.00000000 8.00000000 " Properties=species:S:1:pos:R:3:forces:R:3:energies:R:1 energy=-6.06028963 pbc="T T T"
H 0.50000000 0.50000000 0.49949042 0.00000000 -0.00000000 4.21958957  0.00000000
H 0.50000000 0.50000000 0.62550958 -0.00000000 0.00000000 -4.21958957  0.00000000
2
Lattice="8.00000000 0.00000000 0.00000000 0.00000000 8.00000000 0.00000000 0.00000000 0.00000000 8.00000000 " Properties=species:S:1:pos:R:3:forces:R:3:energies:R:1 energy=-6.34007267 pbc="T T T"
H 0.50000000 0.50000000 0.50391709 0.00000000 0.00000000 3.62519151  0.00000000
H 0.50000000 0.50000000 0.62108291 -0.00000000 -0.00000000 -3.62519151  0.00000000
2
Lattice="8.00000000 0.00000000 0.00000000 0.00000000 8.00000000 0.00000000 0.00000000 0.00000000 8.00000000 " Properties=species:S:1:pos:R:3:forces:R:3:energies:R:1 energy=-6.70374167 pbc="T T T"
H 0.50000000 0.50000000 0.51271598 0.00000000 -0.00000000 1.20237991  0.00000000
H 0.50000000 0.50000000 0.61228402 -0.00000000 -0.00000000 -1.20237991  0.00000000
2
Lattice="8.00000000 0.00000000 0.00000000 0.00000000 8.00000000 0.00000000 0.00000000 0.00000000 8.00000000 " Properties=species:S:1:pos:R:3:forces:R:3:energies:R:1 energy=-6.40925185 pbc="T T T"
H 0.50000000 0.50000000 0.52296503 -0.00000000 -0.00000000 -6.06235946  0.00000000
H 0.50000000 0.50000000 0.60203497 0.00000000 0.00000000 6.06235946  0.00000000
2
Lattice="8.00000000 0.00000000 0.00000000 0.00000000 8.00000000 0.00000000 0.00000000 0.00000000 8.00000000 " Properties=species:S:1:pos:R:3:forces:R:3:energies:R:1 energy=-6.03365228 pbc="T T T"
H 0.50000000 0.50000000 0.52590246 -0.00000000 -0.00000000 -10.14997366  0.00000000
H 0.50000000 0.50000000 0.59909754 0.00000000 0.00000000 10.14997366  0.00000000
2
Lattice="8.00000000 0.00000000 0.00000000 0.00000000 8.00000000 0.00000000 0.00000000 0.00000000 8.00000000 " Properties=species:S:1:pos:R:3:forces:R:3:energies:R:1 energy=-6.72300177 pbc="T T T"
H 0.50000000 0.50000000 0.51659835 -0.00000000 -0.00000000 -0.70460804  0.00000000
H 0.50000000 0.50000000 0.60840165 0.00000000 -0.00000000 0.70460804  0.00000000
2
Lattice="8.00000000 0.00000000 0.00000000 0.00000000 8.00000000 0.00000000 0.00000000 0.00000000 8.00000000 " Properties=species:S:1:pos:R:3:forces:R:3:energies:R:1 energy=-6.47702168 pbc="T T T"
H 0.50000000 0.50000000 0.50644444 0.00000000 0.00000000 3.12642299  0.00000000
H 0.50000000 0.50000000 0.61855556 -0.00000000 -0.00000000 -3.12642299  0.00000000
2
Lattice="8.00000000 0.00000000 0.00000000 0.00000000 8.00000000 0.00000000 0.00000000 0.00000000 8.00000000 " Properties=species:S:1:pos:R:3:forces:R:3:energies:R:1 energy=-6.09857643 pbc="T T T"
H 0.50000000 0.50000000 0.50006120 0.00000000 0.00000000 4.16253972  0.00000000
H 0.50000000 0.50000000 0.62493880 -0.00000000 -0.00000000 -4.16253972  0.00000000
2
Lattice="8.00000000 0.00000000 0.00000000 0.00000000 8.00000000 0.00000000 0.00000000 0.00000000 8.00000000 " Properties=species:S:1:pos:R:3:forces:R:3:energies:R:1 energy=-6.00628359 pbc="T T T"
H 0.50000000 0.50000000 0.49869826 0.00000000 0.00000000 4.29798005  0.00000000
H 0.50000000 0.50000000 0.62630174 -0.00000000 -0.00000000 -4.29798005  0.00000000
2
Lattice="8.00000000 0.00000000 0.00000000 0.00000000 8.00000000 0.00000000 0.00000000 0.00000000 8.00000000 " Properties=species:S:1:pos:R:3:forces:R:3:energies:R:1 energy=-6.25641200 pbc="T T T"
H 0.50000000 0.50000000 0.50251897 0.00000000 0.00000000 3.84862801  0.00000000
H 0.50000000 0.50000000 0.62248103 0.00000000 -0.00000000 -3.84862801  0.00000000
2
Lattice="8.00000000 0.00000000 0.00000000 0.00000000 8.00000000 0.00000000 0.00000000 0.00000000 8.00000000 " Properties=species:S:1:pos:R:3:forces:R:3:energies:R:1 energy=-6.66108759 pbc="T T T"
H 0.50000000 0.50000000 0.51098138 0.00000000 0.00000000 1.85402453  0.00000000
H 0.50000000 0.50000000 0.61401862 -0.00000000 -0.00000000 -1.85402453  0.00000000
2
Lattice="8.00000000 0.00000000 0.00000000 0.00000000 8.00000000 0.00000000 0.00000000 0.00000000 8.00000000 " Properties=species:S:1:pos:R:3:forces:R:3:energies:R:1 energy=-6.51918198 pbc="T T T"
H 0.50000000 0.50000000 0.52167987 -0.00000000 -0.00000000 -4.66364994  0.00000000
H 0.50000000 0.50000000 0.60332013 -0.00000000 0.00000000 4.66364993  0.00000000
2
Lattice="8.00000000 0.00000000 0.00000000 0.00000000 8.00000000 0.00000000 0.00000000 0.00000000 8.00000000 " Properties=species:S:1:pos:R:3:forces:R:3:energies:R:1 energy=-5.88550379 pbc="T T T"
H 0.50000000 0.50000000 0.52675369 -0.00000000 -0.00000000 -11.62783094  0.00000000
H 0.50000000 0.50000000 0.59824631 0.00000000 0.00000000 11.62783094  0.00000000
2
Lattice="8.00000000 0.00000000 0.00000000 0.00000000 8.00000000 0.00000000 0.00000000 0.00000000 8.00000000 " Properties=species:S:1:pos:R:3:forces:R:3:energies:R:1 energy=-6.70227713 pbc="T T T"
H 0.50000000 0.50000000 0.51780357 0.00000000 -0.00000000 -1.46195618  0.00000000
H 0.50000000 0.50000000 0.60719643 0.00000000 0.00000000 1.46195618  0.00000000
2
Lattice="8.00000000 0.00000000 0.00000000 0.00000000 8.00000000 0.00000000 0.00000000 0.00000000 8.00000000 " Properties=species:S:1:pos:R:3:forces:R:3:energies:R:1 energy=-6.50856581 pbc="T T T"
H 0.50000000 0.50000000 0.50709023 0.00000000 0.00000000 2.97730465  0.00000000
H 0.50000000 0.50000000 0.61790977 -0.00000000 -0.00000000 -2.97730465  0.00000000
2
Lattice="8.00000000 0.00000000 0.00000000 0.00000000 8.00000000 0.00000000 0.00000000 0.00000000 8.00000000 " Properties=species:S:1:pos:R:3:forces:R:3:energies:R:1 energy=-5.92434029 pbc="T T T"
H 0.50000000 0.50000000 0.49996772 -0.00184462 -0.00213266 4.78147844  0.00000000
H 0.50000000 0.50000000 0.62503228 -0.00185134 0.00001989 -4.15393067  0.00000000
2
Lattice="8.00000000 0.00000000 0.00000000 0.00000000 8.00000000 0.00000000 0.00000000 0.00000000 8.00000000 " Properties=species:S:1:pos:R:3:forces:R:3:energies:R:1 energy=-5.97416931 pbc="T T T"
H 0.50000000 0.49999870 0.49823356 0.00000857 0.00007698 4.33856323  0.00000000
H 0.50000000 0.50000130 0.62676644 0.00001163 -0.00009987 -4.33802038  0.00000000
2
Lattice="8.00000000 0.00000000 0.00000000 0.00000000 8.00000000 0.00000000 0.00000000 0.00000000 8.00000000 " Properties=species:S:1:pos:R:3:forces:R:3:energies:R:1 energy=-6.20722190 pbc="T T T"
H 0.50000001 0.49999751 0.50173167 0.00000758 0.00016181 3.95952028  0.00000000
H 0.49999999 0.50000249 0.62326833 0.00000800 -0.00016699 -3.95966152  0.00000000
2
Lattice="8.00000000 0.00000000 0.00000000 0.00000000 8.00000000 0.00000000 0.00000000 0.00000000 8.00000000 " Properties=species:S:1:pos:R:3:forces:R:3:energies:R:1 energy=-6.62957257 pbc="T T T"
H 0.50000001 0.49999652 0.51000531 -0.00013279 0.00021067 2.17637395  0.00000000
H 0.49999999 0.50000348 0.61499469 -0.00009978 -0.00011749 -2.15096682  0.00000000
2
Lattice="8.00000000 0.00000000 0.00000000 0.00000000 8.00000000 0.00000000 0.00000000 0.00000000 8.00000000 " Properties=species:S:1:pos:R:3:forces:R:3:energies:R:1 energy=-6.57318953 pbc="T T T"
H 0.49999999 0.49999572 0.52088847 -0.00007389 -0.00037610 -3.90966342  0.00000000
H 0.50000001 0.50000428 0.60411153 -0.00007020 0.00042339 3.90442127  0.00000000
2
Lattice="8.00000000 0.00000000 0.00000000 0.00000000 8.00000000 0.00000000 0.00000000 0.00000000 8.00000000 " Properties=species:S:1:pos:R:3:forces:R:3:energies:R:1 energy=-5.82723242 pbc="T T T"
H 0.49999997 0.49999444 0.52705949 -0.00001014 -0.00191258 -12.19529100  0.00000000
H 0.50000003 0.50000556 0.59794051 0.00001048 0.00191275 12.19530926  0.00000000
2
Lattice="8.00000000 0.00000000 0.00000000 0.00000000 8.00000000 0.00000000 0.00000000 0.00000000 8.00000000 " Properties=species:S:1:pos:R:3:forces:R:3:energies:R:1 energy=-6.68263933 pbc="T T T"
H 0.49999994 0.49999086 0.51852216 -0.00000170 -0.00040442 -1.96031966  0.00000000
H 0.50000006 0.50000914 0.60647784 0.00000386 0.00040375 1.96031729  0.00000000
2
Lattice="8.00000000 0.00000000 0.00000000 0.00000000 8.00000000 0.00000000 0.00000000 0.00000000 8.00000000 " Properties=species:S:1:pos:R:3:forces:R:3:energies:R:1 energy=-6.53327398 pbc="T T T"
H 0.49999990 0.49998679 0.50762056 0.00000534 0.00069314 2.84734940  0.00000000
H 0.50000010 0.50001321 0.61737944 -0.00000502 -0.00069304 -2.84739950  0.00000000
2
Lattice="8.00000000 0.00000000 0.00000000 0.00000000 8.00000000 0.00000000 0.00000000 0.00000000 8.00000000 " Properties=species:S:1:pos:R:3:forces:R:3:energies:R:1 energy=-6.10467229 pbc="T T T"
H 0.49999987 0.49998355 0.50015308 0.00000853 0.00109342 4.15236952  0.00000000
H 0.50000013 0.50001645 0.62484692 -0.00000852 -0.00109345 -4.15237910  0.00000000
2
Lattice="8.00000000 0.00000000 0.00000000 0.00000000 8.00000000 0.00000000 0.00000000 0.00000000 8.00000000 " Properties=species:S:1:pos:R:3:forces:R:3:energies:R:1 energy=-5.93650072 pbc="T T T"
H 0.49999985 0.49998164 0.49769364 0.00000996 0.00124085 4.38188488  0.00000000
H 0.50000015 0.50001836 0.62730636 -0.00001001 -0.00124080 -4.38188006  0.00000000
2
Lattice="8.00000000 0.00000000 0.00000000 0.00000000 8.00000000 0.00000000 0.00000000 0.00000000 8.00000000 " Properties=species:S:1:pos:R:3:forces:R:3:energies:R:1 energy=-6.12887641 pbc="T T T"
H 0.49999984 0.49998122 0.50051905 0.00001021 0.00123929 4.11200766  0.00000000
H 0.50000016 0.50001878 0.62448095 -0.00001025 -0.00123922 -4.11199999  0.00000000
2
Lattice="8.00000000 0.00000000 0.00000000 0.00000000 8.00000000 0.00000000 0.00000000 0.00000000 8.00000000 " Properties=species:S:1:pos:R:3:forces:R:3:energies:R:1 energy=-6.56344912 pbc="T T T"
H 0.49999985 0.49998229 0.50830380 0.00000742 0.00087755 2.66853921  0.00000000
H 0.50000015 0.50001771 0.61669620 -0.00000746 -0.00087751 -2.66853663  0.00000000
2
Lattice="8.00000000 0.00000000 0.00000000 0.00000000 8.00000000 0.00000000 0.00000000 0.00000000 8.00000000 " Properties=species:S:1:pos:R:3:forces:R:3:energies:R:1 energy=-6.65433535 pbc="T T T"
H 0.49999986 0.49998442 0.51930698 -0.00000799 -0.00091954 -2.55361270  0.00000000
H 0.50000014 0.50001558 0.60569302 0.00000808 0.00091949 2.55359235  0.00000000
2
Lattice="8.00000000 0.00000000 0.00000000 0.00000000 8.00000000 0.00000000 0.00000000 0.00000000 8.00000000 " Properties=species:S:1:pos:R:3:forces:R:3:energies:R:1 energy=-5.79344891 pbc="T T T"
H 0.49999987 0.49998545 0.52723035 -0.00004687 -0.00516946 -12.52145271  0.00000000
H 0.50000013 0.50001455 0.59776965 0.00004687 0.00516945 12.52144890  0.00000000
2
Lattice="8.00000000 0.00000000 0.00000000 0.00000000 8.00000000 0.00000000 0.00000000 0.00000000 8.00000000 " Properties=species:S:1:pos:R:3:forces:R:3:energies:R:1 energy=-6.62041854 pbc="T T T"
H 0.49999982 0.49998024 0.52005202 -0.00001376 -0.00147595 -3.15519474  0.00000000
H 0.50000018 0.50001976 0.60494798 0.00001376 0.00147595 3.15519494  0.00000000
2
Lattice="8.00000000 0.00000000 0.00000000 0.00000000 8.00000000 0.00000000 0.00000000 0.00000000 8.00000000 " Properties=species:S:1:pos:R:3:forces:R:3:energies:R:1 energy=-6.59481716 pbc="T T T"
H 0.49999975 0.49997324 0.50906832 0.00001159 0.00122471 2.45759969  0.00000000
H 0.50000025 0.50002676 0.61593168 -0.00001159 -0.00122471 -2.45759979  0.00000000
2
Lattice="8.00000000 0.00000000 0.00000000 0.00000000 8.00000000 0.00000000 0.00000000 0.00000000 8.00000000 " Properties=species:S:1:pos:R:3:forces:R:3:energies:R:1 energy=-6.16344642 pbc="T T T"
H 0.49999969 0.49996773 0.50104864 0.00002025 0.00212128 4.04807291  0.00000000
H 0.50000031 0.50003227 0.62395136 -0.00002025 -0.00212128 -4.04807332  0.00000000
2
Lattice="8.00000000 0.00000000 0.00000000 0.00000000 8.00000000 0.00000000 0.00000000 0.00000000 8.00000000 " Properties=species:S:1:pos:R:3:forces:R:3:energies:R:1 energy=-5.95172410 pbc="T T T"
H 0.49999966 0.49996477 0.49791121 0.00002289 0.00237636 4.36485660  0.00000000
H 0.50000034 0.50003523 0.62708879 -0.00002289 -0.00237636 -4.36485663  0.00000000
2
Lattice="8.00000000 0.00000000 0.00000000 0.00000000 8.00000000 0.00000000 0.00000000 0.00000000 8.00000000 " Properties=species:S:1:pos:R:3:forces:R:3:energies:R:1 energy=-6.09702742 pbc="T T T"
H 0.49999966 0.49996469 0.50003809 0.00002276 0.00235376 4.16580882  0.00000000
H 0.50000034 0.50003531 0.62496191 -0.00002276 -0.00235376 -4.16580885  0.00000000
2
Lattice="8.00000000 0.00000000 0.00000000 0.00000000 8.00000000 0.00000000 0.00000000 0.00000000 8.00000000 " Properties=species:S:1:pos:R:3:forces:R:3:energies:R:1 energy=-6.51326016 pbc="T T T"
H 0.49999968 0.49996743 0.50718920 0.00001705 0.00175234 2.95266538  0.00000000
H 0.50000032 0.50003257 0.61781080 -0.00001705 -0.00175235 -2.95266526  0.00000000
2
Lattice="8.00000000 0.00000000 0.00000000 0.00000000 8.00000000 0.00000000 0.00000000 0.00000000 8.00000000 " Properties=species:S:1:pos:R:3:forces:R:3:energies:R:1 energy=-6.69990113 pbc="T T T"
H 0.49999973 0.49997230 0.51790143 -0.00000921 -0.00093911 -1.53166611  0.00000000
H 0.50000027 0.50002770 0.60709857 0.00000921 0.00093911 1.53166596  0.00000000
2
Lattice="8.00000000 0.00000000 0.00000000 0.00000000 8.00000000 0.00000000 0.00000000 0.00000000 8.00000000 " Properties=species:S:1:pos:R:3:forces:R:3:energies:R:1 energy=-5.88314409 pbc="T T T"
H 0.49999976 0.49997603 0.52676637 -0.00007751 -0.00782971 -11.65086690  0.00000000
H 0.50000024 0.50002397 0.59823363 0.00007751 0.00782971 11.65086690  0.00000000
2
Lattice="8.00000000 0.00000000 0.00000000 0.00000000 8.00000000 0.00000000 0.00000000 0.00000000 8.00000000 " Properties=species:S:1:pos:R:3:forces:R:3:energies:R:1 energy=-6.52657958 pbc="T T T"
H 0.49999970 0.49997031 0.52157959 -0.00003327 -0.00332315 -4.56205865  0.00000000
H 0.50000030 0.50002969 0.60342041 0.00003327 0.00332315 4.56205867  0.00000000
2
Lattice="8.00000000 0.00000000 0.00000000 0.00000000 8.00000000 0.00000000 0.00000000 0.00000000 8.00000000 " Properties=species:S:1:pos:R:3:forces:R:3:energies:R:1 energy=-6.65836612 pbc="T T T"
H 0.49999960 0.49996059 0.51089066 0.00001439 0.00142881 1.88508532  0.00000000
H 0.50000040 0.50003941 0.61410934 -0.00001439 -0.00142881 -1.88508532  0.00000000
2
Lattice="8.00000000 0.00000000 0.00000000 0.00000000 8.00000000 0.00000000 0.00000000 0.00000000 8.00000000 " Properties=species:S:1:pos:R:3:forces:R:3:energies:R:1 energy=-6.25370798 pbc="T T T"
H 0.49999952 0.49995259 0.50247527 0.00003082 0.00304959 3.85503728  0.00000000
H 0.50000048 0.50004741 0.62252473 -0.00003082 -0.00304959 -3.85503728  0.00000000
2
Lattice="8.00000000 0.00000000 0.00000000 0.00000000 8.00000000 0.00000000 0.00000000 0.00000000 8.00000000 " Properties=species:S:1:pos:R:3:forces:R:3:energies:R:1 energy=-6.00703809 pbc="T T T"
H 0.49999948 0.49994828 0.49870931 0.00003538 0.00349176 4.29671494  0.00000000
H 0.50000052 0.50005172 0.62629069 -0.00003538 -0.00349176 -4.29671494  0.00000000
2
Lattice="8.00000000 0.00000000 0.00000000 0.00000000 8.00000000 0.00000000 0.00000000 0.00000000 8.00000000 " Properties=species:S:1:pos:R:3:forces:R:3:energies:R:1 energy=-6.10284208 pbc="T T T"
H 0.49999947 0.49994817 0.50012548 0.00003503 0.00344866 4.15645300  0.00000000
H 0.50000053 0.50005183 0.62487452 -0.00003503 -0.00344866 -4.15645300  0.00000000
1
Lattice="8.00000000 0.00000000 0.00000000 0.00000000 8.00000000 0.00000000 0.00000000 0.00000000 8.00000000 " Properties=species:S:1:pos:R:3:forces:R:3:energies:R:1 energy=3.21 free_Energie=3.21 pbc="T T T"
H        0.00000000       0.00000000       0.00000000       0.00000000       0.00000000       0.00000000       3.21000000
