 81
 energy=75.664897743680825 cutoff=4.00000000 nneightol=1.20000000 pbc="T T T" Lattice="9.31284498       0.00000000       0.00000000       0.00000000       9.31284498       0.00000000       0.00000000       0.00000000       9.31284498" Properties=species:S:1:pos:R:3:forces:R:3:energies:R:1:Z:I:1:map_shift:I:3:n_neighb:I:1:force:R:3
 O               0.00000000      0.00000000      0.11926200     -0.00000000     -0.00000000      8.11183591     -0.04479790       8       0       0       0      44      0.00000000      0.00000004      6.03210482
 H               0.00000000      0.76323900      8.83579798      0.00000000      5.21893682     -4.05591796      1.35042099       1       0       0      -1      41      0.00000000      4.37164614     -3.01605239
 H               0.00000000      8.54960598      8.83579798      0.00000000     -5.21893682     -4.05591796      1.35042099       1       0      -1      -1      41      0.00000000     -4.37164618     -3.01605243
 O               0.00000000      0.00000000      3.22354366     -0.00000000      0.00000000      8.11183591     -0.04479790       8       0       0       0      44      0.00000000      0.00000004      6.03210477
 H               0.00000000      0.76323900      2.62723466      0.00000000      5.21893682     -4.05591796      1.35042099       1       0       0       0      41      0.00000000      4.37164610     -3.01605237
 H               0.00000000      8.54960598      2.62723466      0.00000000     -5.21893682     -4.05591796      1.35042099       1       0      -1       0      41      0.00000000     -4.37164615     -3.01605241
 O               0.00000000      0.00000000      6.32782532     -0.00000000      0.00000000      8.11183591     -0.04479790       8       0       0      -1      44      0.00000000      0.00000004      6.03210478
 H               0.00000000      0.76323900      5.73151632      0.00000000      5.21893682     -4.05591796      1.35042099       1       0       0      -1      41      0.00000000      4.37164610     -3.01605237
 H               0.00000000      8.54960598      5.73151632      0.00000000     -5.21893682     -4.05591796      1.35042099       1       0      -1      -1      41      0.00000000     -4.37164614     -3.01605241
 O               0.00000000      3.10428166      0.11926200     -0.00000000      0.00000000      8.11183591     -0.04479790       8       0       0       0      44      0.00000000      0.00000000      6.03210478
 H               0.00000000      3.86752066      8.83579798      0.00000000      5.21893682     -4.05591796      1.35042099       1       0       0      -1      41      0.00000000      4.37164614     -3.01605239
 H               0.00000000      2.34104266      8.83579798      0.00000000     -5.21893682     -4.05591796      1.35042099       1       0       0      -1      41      0.00000000     -4.37164614     -3.01605239
 O               0.00000000      3.10428166      3.22354366     -0.00000000     -0.00000000      8.11183591     -0.04479790       8       0       0       0      44      0.00000000      0.00000000      6.03210474
 H               0.00000000      3.86752066      2.62723466      0.00000000      5.21893682     -4.05591796      1.35042099       1       0       0       0      41      0.00000000      4.37164610     -3.01605237
 H               0.00000000      2.34104266      2.62723466      0.00000000     -5.21893682     -4.05591796      1.35042099       1       0       0       0      41      0.00000000     -4.37164610     -3.01605237
 O               0.00000000      3.10428166      6.32782532     -0.00000000     -0.00000000      8.11183591     -0.04479790       8       0       0      -1      44      0.00000000      0.00000000      6.03210474
 H               0.00000000      3.86752066      5.73151632      0.00000000      5.21893682     -4.05591796      1.35042099       1       0       0      -1      41      0.00000000      4.37164610     -3.01605237
 H               0.00000000      2.34104266      5.73151632      0.00000000     -5.21893682     -4.05591796      1.35042099       1       0       0      -1      41      0.00000000     -4.37164610     -3.01605237
 O               0.00000000      6.20856332      0.11926200     -0.00000000     -0.00000000      8.11183591     -0.04479790       8       0      -1       0      44      0.00000000     -0.00000000      6.03210478
 H               0.00000000      6.97180232      8.83579798      0.00000000      5.21893682     -4.05591796      1.35042099       1       0      -1      -1      41      0.00000000      4.37164614     -3.01605239
 H               0.00000000      5.44532432      8.83579798      0.00000000     -5.21893682     -4.05591796      1.35042099       1       0      -1      -1      41      0.00000000     -4.37164614     -3.01605239
 O               0.00000000      6.20856332      3.22354366     -0.00000000     -0.00000000      8.11183591     -0.04479790       8       0      -1       0      44      0.00000000     -0.00000000      6.03210474
 H               0.00000000      6.97180232      2.62723466      0.00000000      5.21893682     -4.05591796      1.35042099       1       0      -1       0      41      0.00000000      4.37164610     -3.01605237
 H               0.00000000      5.44532432      2.62723466      0.00000000     -5.21893682     -4.05591796      1.35042099       1       0      -1       0      41      0.00000000     -4.37164610     -3.01605237
 O               0.00000000      6.20856332      6.32782532     -0.00000000     -0.00000000      8.11183591     -0.04479790       8       0      -1      -1      44      0.00000000     -0.00000000      6.03210474
 H               0.00000000      6.97180232      5.73151632      0.00000000      5.21893682     -4.05591796      1.35042099       1       0      -1      -1      41      0.00000000      4.37164610     -3.01605237
 H               0.00000000      5.44532432      5.73151632      0.00000000     -5.21893682     -4.05591796      1.35042099       1       0      -1      -1      41      0.00000000     -4.37164610     -3.01605237
 O               3.10428166      0.00000000      0.11926200     -0.00000000      0.00000000      8.11183591     -0.04479790       8       0       0       0      44     -0.00000000      0.00000004      6.03210482
 H               3.10428166      0.76323900      8.83579798     -0.00000000      5.21893682     -4.05591796      1.35042099       1       0       0      -1      41     -0.00000000      4.37164614     -3.01605239
 H               3.10428166      8.54960598      8.83579798      0.00000000     -5.21893682     -4.05591796      1.35042099       1       0      -1      -1      41     -0.00000000     -4.37164618     -3.01605243
 O               3.10428166      0.00000000      3.22354366     -0.00000000      0.00000000      8.11183591     -0.04479790       8       0       0       0      44     -0.00000000      0.00000004      6.03210477
 H               3.10428166      0.76323900      2.62723466     -0.00000000      5.21893682     -4.05591796      1.35042099       1       0       0       0      41     -0.00000000      4.37164610     -3.01605237
 H               3.10428166      8.54960598      2.62723466     -0.00000000     -5.21893682     -4.05591796      1.35042099       1       0      -1       0      41     -0.00000000     -4.37164615     -3.01605241
 O               3.10428166      0.00000000      6.32782532     -0.00000000     -0.00000000      8.11183591     -0.04479790       8       0       0      -1      44     -0.00000000      0.00000004      6.03210478
 H               3.10428166      0.76323900      5.73151632      0.00000000      5.21893682     -4.05591796      1.35042099       1       0       0      -1      41     -0.00000000      4.37164610     -3.01605237
 H               3.10428166      8.54960598      5.73151632      0.00000000     -5.21893682     -4.05591796      1.35042099       1       0      -1      -1      41     -0.00000000     -4.37164614     -3.01605241
 O               3.10428166      3.10428166      0.11926200     -0.00000000      0.00000000      8.11183591     -0.04479790       8       0       0       0      44     -0.00000000      0.00000000      6.03210478
 H               3.10428166      3.86752066      8.83579798      0.00000000      5.21893682     -4.05591796      1.35042099       1       0       0      -1      41     -0.00000000      4.37164614     -3.01605239
 H               3.10428166      2.34104266      8.83579798     -0.00000000     -5.21893682     -4.05591796      1.35042099       1       0       0      -1      41     -0.00000000     -4.37164614     -3.01605239
 O               3.10428166      3.10428166      3.22354366     -0.00000000     -0.00000000      8.11183591     -0.04479790       8       0       0       0      44     -0.00000000      0.00000000      6.03210474
 H               3.10428166      3.86752066      2.62723466     -0.00000000      5.21893682     -4.05591796      1.35042099       1       0       0       0      41     -0.00000000      4.37164610     -3.01605237
 H               3.10428166      2.34104266      2.62723466      0.00000000     -5.21893682     -4.05591796      1.35042099       1       0       0       0      41      0.00000000     -4.37164610     -3.01605237
 O               3.10428166      3.10428166      6.32782532     -0.00000000     -0.00000000      8.11183591     -0.04479790       8       0       0      -1      44     -0.00000000      0.00000000      6.03210474
 H               3.10428166      3.86752066      5.73151632     -0.00000000      5.21893682     -4.05591796      1.35042099       1       0       0      -1      41     -0.00000000      4.37164610     -3.01605237
 H               3.10428166      2.34104266      5.73151632      0.00000000     -5.21893682     -4.05591796      1.35042099       1       0       0      -1      41      0.00000000     -4.37164610     -3.01605237
 O               3.10428166      6.20856332      0.11926200      0.00000000      0.00000000      8.11183591     -0.04479790       8       0      -1       0      44      0.00000000     -0.00000000      6.03210478
 H               3.10428166      6.97180232      8.83579798     -0.00000000      5.21893682     -4.05591796      1.35042099       1       0      -1      -1      41     -0.00000000      4.37164614     -3.01605239
 H               3.10428166      5.44532432      8.83579798     -0.00000000     -5.21893682     -4.05591796      1.35042099       1       0      -1      -1      41      0.00000000     -4.37164614     -3.01605239
 O               3.10428166      6.20856332      3.22354366      0.00000000     -0.00000000      8.11183591     -0.04479790       8       0      -1       0      44      0.00000000     -0.00000000      6.03210474
 H               3.10428166      6.97180232      2.62723466     -0.00000000      5.21893682     -4.05591796      1.35042099       1       0      -1       0      41     -0.00000000      4.37164610     -3.01605237
 H               3.10428166      5.44532432      2.62723466     -0.00000000     -5.21893682     -4.05591796      1.35042099       1       0      -1       0      41      0.00000000     -4.37164610     -3.01605237
 O               3.10428166      6.20856332      6.32782532      0.00000000     -0.00000000      8.11183591     -0.04479790       8       0      -1      -1      44      0.00000000     -0.00000000      6.03210474
 H               3.10428166      6.97180232      5.73151632     -0.00000000      5.21893682     -4.05591796      1.35042099       1       0      -1      -1      41     -0.00000000      4.37164610     -3.01605237
 H               3.10428166      5.44532432      5.73151632      0.00000000     -5.21893682     -4.05591796      1.35042099       1       0      -1      -1      41      0.00000000     -4.37164610     -3.01605237
 O               6.20856332      0.00000000      0.11926200      0.00000000     -0.00000000      8.11183591     -0.04479790       8      -1       0       0      44     -0.00000000      0.00000004      6.03210482
 H               6.20856332      0.76323900      8.83579798     -0.00000000      5.21893682     -4.05591796      1.35042099       1      -1       0      -1      41     -0.00000000      4.37164614     -3.01605239
 H               6.20856332      8.54960598      8.83579798     -0.00000000     -5.21893682     -4.05591796      1.35042099       1      -1      -1      -1      41     -0.00000000     -4.37164618     -3.01605243
 O               6.20856332      0.00000000      3.22354366      0.00000000      0.00000000      8.11183591     -0.04479790       8      -1       0       0      44     -0.00000000      0.00000004      6.03210477
 H               6.20856332      0.76323900      2.62723466     -0.00000000      5.21893682     -4.05591796      1.35042099       1      -1       0       0      41     -0.00000000      4.37164610     -3.01605237
 H               6.20856332      8.54960598      2.62723466     -0.00000000     -5.21893682     -4.05591796      1.35042099       1      -1      -1       0      41     -0.00000000     -4.37164615     -3.01605241
 O               6.20856332      0.00000000      6.32782532      0.00000000      0.00000000      8.11183591     -0.04479790       8      -1       0      -1      44     -0.00000000      0.00000004      6.03210478
 H               6.20856332      0.76323900      5.73151632     -0.00000000      5.21893682     -4.05591796      1.35042099       1      -1       0      -1      41     -0.00000000      4.37164610     -3.01605237
 H               6.20856332      8.54960598      5.73151632     -0.00000000     -5.21893682     -4.05591796      1.35042099       1      -1      -1      -1      41     -0.00000000     -4.37164614     -3.01605241
 O               6.20856332      3.10428166      0.11926200      0.00000000      0.00000000      8.11183591     -0.04479790       8      -1       0       0      44     -0.00000000      0.00000000      6.03210478
 H               6.20856332      3.86752066      8.83579798     -0.00000000      5.21893682     -4.05591796      1.35042099       1      -1       0      -1      41     -0.00000000      4.37164614     -3.01605239
 H               6.20856332      2.34104266      8.83579798      0.00000000     -5.21893682     -4.05591796      1.35042099       1      -1       0      -1      41     -0.00000000     -4.37164614     -3.01605239
 O               6.20856332      3.10428166      3.22354366      0.00000000     -0.00000000      8.11183591     -0.04479790       8      -1       0       0      44     -0.00000000      0.00000000      6.03210474
 H               6.20856332      3.86752066      2.62723466     -0.00000000      5.21893682     -4.05591796      1.35042099       1      -1       0       0      41     -0.00000000      4.37164610     -3.01605237
 H               6.20856332      2.34104266      2.62723466      0.00000000     -5.21893682     -4.05591796      1.35042099       1      -1       0       0      41     -0.00000000     -4.37164610     -3.01605237
 O               6.20856332      3.10428166      6.32782532      0.00000000     -0.00000000      8.11183591     -0.04479790       8      -1       0      -1      44     -0.00000000      0.00000000      6.03210474
 H               6.20856332      3.86752066      5.73151632     -0.00000000      5.21893682     -4.05591796      1.35042099       1      -1       0      -1      41     -0.00000000      4.37164610     -3.01605237
 H               6.20856332      2.34104266      5.73151632     -0.00000000     -5.21893682     -4.05591796      1.35042099       1      -1       0      -1      41     -0.00000000     -4.37164610     -3.01605237
 O               6.20856332      6.20856332      0.11926200      0.00000000      0.00000000      8.11183591     -0.04479790       8      -1      -1       0      44     -0.00000000     -0.00000000      6.03210478
 H               6.20856332      6.97180232      8.83579798     -0.00000000      5.21893682     -4.05591796      1.35042099       1      -1      -1      -1      41     -0.00000000      4.37164614     -3.01605239
 H               6.20856332      5.44532432      8.83579798     -0.00000000     -5.21893682     -4.05591796      1.35042099       1      -1      -1      -1      41     -0.00000000     -4.37164614     -3.01605239
 O               6.20856332      6.20856332      3.22354366      0.00000000     -0.00000000      8.11183591     -0.04479790       8      -1      -1       0      44     -0.00000000     -0.00000000      6.03210474
 H               6.20856332      6.97180232      2.62723466     -0.00000000      5.21893682     -4.05591796      1.35042099       1      -1      -1       0      41     -0.00000000      4.37164610     -3.01605237
 H               6.20856332      5.44532432      2.62723466     -0.00000000     -5.21893682     -4.05591796      1.35042099       1      -1      -1       0      41     -0.00000000     -4.37164610     -3.01605237
 O               6.20856332      6.20856332      6.32782532      0.00000000     -0.00000000      8.11183591     -0.04479790       8      -1      -1      -1      44     -0.00000000     -0.00000000      6.03210474
 H               6.20856332      6.97180232      5.73151632     -0.00000000      5.21893682     -4.05591796      1.35042099       1      -1      -1      -1      41     -0.00000000      4.37164610     -3.01605237
 H               6.20856332      5.44532432      5.73151632     -0.00000000     -5.21893682     -4.05591796      1.35042099       1      -1      -1      -1      41     -0.00000000     -4.37164610     -3.01605237
 81
 energy=56.184628984675840 cutoff=4.00000000 nneightol=1.20000000 pbc="T T T" Lattice="9.31284498       0.00000000       0.00000000       0.00000000       9.31284498       0.00000000       0.00000000       0.00000000       9.31284498" Properties=species:S:1:pos:R:3:forces:R:3:energies:R:1:Z:I:1:map_shift:I:3:n_neighb:I:1:force:R:3
 O               0.00012134      0.00034481      0.13897898     -0.00100521     -0.01252462     -2.02026357      1.11592752       8       0       0       0      48      0.02881154     -0.01574383     -0.69835346
 H               9.31236346      0.90678127      8.68280755      0.00075094     -1.38737633      1.00557474      0.43381187       1      -1       0      -1      44     -0.00156901     -0.59120996      0.36625818
 H               0.00013182      8.40468951      8.68195478      0.00009621      1.39841731      1.01529999      0.43137853       1       0      -1      -1      44     -0.00124713      0.61377385      0.37292233
 O               9.31231153      9.31220902      3.24312589      0.00394069      0.00525670     -2.01854882      1.11422589       8      -1      -1       0      48     -0.03639191      0.01112636     -0.73296400
 H               0.00090892      0.90627645      2.47274713     -0.00162453     -1.39098572      1.01024727      0.43228834       1       0       0       0      44     -0.00489839     -0.60020724      0.35575538
 H               0.00096183      8.40702035      2.47221731     -0.00185526      1.38464324      1.00826214      0.43330559       1       0      -1       0      44     -0.00029871      0.59228264      0.34167046
 O               9.31233428      0.00035074      6.34763880      0.00075552      0.00096526     -2.02735271      1.11726577       8      -1       0      -1      48     -0.00975453      0.00621994     -0.71972511
 H               9.31157723      0.90726107      5.57709355      0.00097257     -1.39598927      1.01476828      0.43219823       1      -1       0      -1      44     -0.00079156     -0.60732291      0.35750701
 H               0.00113763      8.40610262      5.57747181     -0.00233098      1.39419212      1.01264193      0.43242204       1       0      -1      -1      44      0.01252824      0.60144409      0.35992219
 O               9.31237647      3.10390506      0.13852515      0.00086501      0.00104759     -2.03308342      1.11731662       8      -1       0       0      48     -0.00385726     -0.00041935     -0.72761520
 H               0.00016874      4.00991424      8.67961462     -0.00111505     -1.39535866      1.01648548      0.43203378       1       0       0      -1      44     -0.00710651     -0.60363381      0.34534824
 H               9.31266454      2.19786659      8.68001156     -0.00033363      1.39508403      1.01483049      0.43232673       1      -1       0      -1      44     -0.00438187      0.60230451      0.34699002
 O               9.31261422      3.10436711      3.24279334     -0.00278003     -0.01410840     -1.98638940      1.10650322       8      -1       0       0      48     -0.00596958     -0.02039210     -0.71156691
 H               9.31122671      4.00824353      2.47380977      0.00173046     -1.36503812      0.98921862      0.43575648       1      -1       0       0      44     -0.01443531     -0.57442143      0.34649910
 H               9.31189315      2.19724899      2.47356034      0.00066049      1.37734225      0.99746578      0.43295595       1      -1       0       0      44     -0.01255071      0.59930844      0.36281334
 O               0.00015116      3.10446684      6.34706964     -0.00185361      0.00311298     -2.01354211      1.11327987       8       0       0      -1      48     -0.02263898     -0.00170599     -0.74253371
 H               0.00004293      4.01060080      5.57644195      0.00021162     -1.38765744      1.00901294      0.43268746       1       0       0      -1      44     -0.00068064     -0.59981307      0.35430715
 H               9.31193423      2.19828693      5.57716085      0.00144805      1.38470370      1.00509009      0.43330252       1      -1       0      -1      44     -0.00062097      0.58894784      0.36223876
 O               9.31264365      6.20863999      0.13842016      0.00241520     -0.00198039     -2.00958578      1.11280423       8      -1      -1       0      48     -0.01302166      0.00097353     -0.73009100
 H               9.31211686      7.11412261      8.68027443      0.00061542     -1.38287408      1.00603354      0.43314305       1      -1      -1      -1      44     -0.00612599     -0.59291596      0.35072735
 H               0.00197980      5.30099936      8.68298037     -0.00263355      1.38563812      1.00304302      0.43324757       1       0      -1      -1      44      0.00951540      0.59360657      0.38027571
 O               0.00025088      6.20865103      3.24273039     -0.00172087      0.00451381     -2.00597714      1.11087032       8       0      -1       0      48     -0.01242288      0.00876817     -0.72278001
 H               0.00027624      7.11463216      2.47215605     -0.00016273     -1.38255252      1.00542023      0.43285693       1       0      -1       0      44      0.00432787     -0.59886676      0.34463983
 H               9.31165802      5.30282482      2.47366262      0.00195168      1.38120098      1.00105872      0.43393347       1      -1      -1       0      44      0.00360046      0.59218148      0.34910627
 O               0.00031004      6.20848758      6.34758581      0.00082774      0.00989129     -2.01949493      1.11510195       8       0      -1      -1      48      0.02532437      0.01386549     -0.71907867
 H               0.00191556      7.11624948      5.57725267     -0.00205395     -1.39500473      1.01300859      0.43169730       1       0      -1      -1      44      0.00952346     -0.60809741      0.37310946
 H               9.31228243      5.30282823      5.57771915      0.00109833      1.38541230      1.00679762      0.43370523       1      -1      -1      -1      44     -0.00025538      0.58948280      0.36083729
 O               3.10470382      9.31265851      0.13872659      0.00021579      0.00594363     -2.02878125      1.11784298       8       0      -1       0      48     -0.01536820      0.00176785     -0.73326823
 H               3.10365558      0.90671217      8.67990667      0.00132673     -1.39790951      1.01887237      0.43146388       1       0       0      -1      44     -0.00463590     -0.61027426      0.35447917
 H               3.10589824      8.40496904      8.68282281     -0.00135585      1.39299558      1.00933721      0.43301975       1       0      -1      -1      44      0.00996412      0.59718039      0.37624480
 O               3.10340605      0.00041305      3.24278950     -0.00267388     -0.02195834     -2.00607793      1.11094636       8       0       0       0      48     -0.01817718     -0.03997450     -0.71681666
 H               3.10168951      0.90452408      2.47372907      0.00199112     -1.36905122      0.99357787      0.43568142       1       0       0       0      44     -0.02076986     -0.57164496      0.34544912
 H               3.10334173      8.40605919      2.47155293     -0.00047280      1.38945757      1.01192143      0.43129565       1       0      -1       0      44     -0.00788136      0.60980984      0.34963199
 O               3.10472676      9.31232110      6.34777908      0.00133165      0.00544588     -2.00265341      1.11170241       8       0      -1      -1      48      0.03584317      0.01348783     -0.69365283
 H               3.10511686      0.90622107      5.57788467     -0.00046214     -1.38528004      1.00457212      0.43287291       1       0       0      -1      44      0.00758370     -0.59609042      0.36840225
 H               3.10519256      8.40582991      5.57914521     -0.00070066      1.38323262      0.99943995      0.43400145       1       0      -1      -1      44      0.00691834      0.58901435      0.37310686
 O               3.10452128      3.10426300      0.13881721      0.00016484     -0.00722235     -2.01345634      1.11424261       8       0       0       0      48      0.02495902     -0.01779144     -0.73544273
 H               3.10466839      4.01163139      8.68390146     -0.00024991     -1.38947890      1.00361091      0.43373817       1       0       0      -1      44      0.00276915     -0.59687423      0.37982236
 H               3.10439425      2.19674424      8.68148660      0.00028527      1.39096293      1.01095562      0.43204068       1       0       0      -1      44      0.00380657      0.60642745      0.37039797
 O               3.10423808      3.10447190      3.24258929      0.00045098     -0.01870481     -2.01618911      1.11397634       8       0       0       0      48      0.00742540     -0.02045065     -0.73272864
 H               3.10514301      4.01034386      2.47426621     -0.00108493     -1.38030948      0.99873182      0.43479010       1       0       0       0      44      0.01010706     -0.58239691      0.36430305
 H               3.10342020      2.19708866      2.47117855      0.00134613      1.39722414      1.01701987      0.43100711       1       0       0       0      44      0.00059190      0.61362930      0.35476134
 O               3.10455715      3.10418791      6.34703330      0.00301987     -0.01267923     -2.00016367      1.11067971       8       0       0      -1      48     -0.02775039     -0.02334840     -0.70659354
 H               3.10643037      4.00955352      5.57832757     -0.00201064     -1.37761986      0.99582205      0.43482400       1       0       0      -1      44      0.01394306     -0.58202301      0.35597015
 H               3.10485831      2.19661718      5.57749677     -0.00039180      1.38674466      1.00445125      0.43240466       1       0       0      -1      44      0.00557808      0.60094297      0.36894041
 O               3.10359112      6.20813702      0.13910134      0.00233212      0.02406702     -2.01247292      1.11260519       8       0      -1       0      48     -0.01122548      0.03403376     -0.72827650
 H               3.10419456      7.11553744      8.67981726     -0.00101490     -1.39499726      1.01541931      0.43067943       1       0      -1      -1      44     -0.00457946     -0.61193385      0.35836561
 H               3.10496491      5.30471755      8.68206641     -0.00175133      1.37464110      0.99702974      0.43559611       1       0      -1      -1      44     -0.00227241      0.57097355      0.34641164
 O               3.10446851      6.20876182      3.24273102      0.00353859     -0.00857056     -2.01894196      1.11414522       8       0      -1       0      48      0.00407137     -0.02190852     -0.70726606
 H               3.10715705      7.11393941      2.47236750     -0.00302895     -1.38138568      1.00579171      0.43373980       1       0      -1       0      44      0.01738402     -0.59018997      0.35468026
 H               3.10443304      5.30174945      2.47198627     -0.00000703      1.39392798      1.01196283      0.43191582       1       0      -1       0      44      0.00258823      0.60662708      0.36007714
 O               3.10474599      6.20873853      6.34680350     -0.00030840     -0.00001126     -1.98747979      1.10756360       8       0      -1      -1      48      0.01860282      0.00171982     -0.68350619
 H               3.10579830      7.11451125      5.57745404     -0.00131116     -1.37612041      0.99465719      0.43408143       1       0      -1      -1      44      0.00765024     -0.58540933      0.34801195
 H               3.10343935      5.30211601      5.57894433      0.00130898      1.37670068      0.99303282      0.43433973       1       0      -1      -1      44     -0.00260606      0.58582680      0.36614491
 O               6.20916805      9.31284285      0.13885440     -0.00377111      0.00855603     -2.03559606      1.11808870       8      -1      -1       0      48      0.02021616      0.00874841     -0.73781131
 H               6.20771912      0.90753655      8.68039201      0.00188308     -1.39756790      1.01951979      0.43118791       1      -1       0      -1      44     -0.00236717     -0.61597870      0.35261829
 H               6.20774851      8.40726972      8.68076914      0.00187809      1.39327352      1.01514710      0.43285982       1      -1      -1      -1      44     -0.00800451      0.60137067      0.34238263