192
Lattice="6.22321522 0.0 0.0 -3.10548432 5.39298588 0.0 0.0 0.0 11.097194" Properties=species:S:1:pos:R:3:forces:R:3:energies:R:1 energy=-431.11568296 pbc="T T T"
H        0.24869055       0.41508276       0.06253000      -0.15050290       0.16470608      -0.08869649       0.00000000
H        0.87562245       0.14517476       0.56681362      -0.42358445      -0.08144501       0.02022549       0.00000000
H        0.50288520       0.17670453       0.55908655       0.29970010       0.03221759      -0.03082022       0.00000000
H        0.00796492       0.40953818       0.56181017      -0.08715662      -0.19609707       0.06169414       0.00000000
H        0.59720478       0.03850201       0.57297030       0.10396960       0.35044985       0.16634098       0.00000000
H        0.83491589       0.50130713       0.68746557      -0.21717339       0.04807891       0.08884435       0.00000000
H        0.93773764       0.48049255       0.69791124       0.30750505      -0.03191825       0.12078592       0.00000000
H        0.60482212       0.37437652       0.68318759      -0.14079883       0.40797019      -0.02027072       0.00000000
H        0.57329710       0.24711378       0.69091370       0.12179057      -0.27615879       0.03077764       0.00000000
H        0.84046320       0.24203661       0.68818986       0.12624985       0.17322479      -0.06179036       0.00000000
H        0.76950885       0.31226613       0.55208973       0.18171802      -0.25126254      -0.12091171       0.00000000
H        0.71150009       0.15279444       0.67703029      -0.25175497      -0.26506859      -0.16633093       0.00000000
H        0.73049342       0.18773459       0.94791066      -0.18182456       0.25146467       0.12092030       0.00000000
H        0.62437807       0.35482368       0.93318813       0.42356723       0.08146647      -0.02023697       0.00000000
H        0.99711285       0.32329532       0.94091224      -0.29966310      -0.03219298       0.03082943       0.00000000
H        0.49203738       0.09046258       0.93819116       0.08704350       0.19617399      -0.06179895       0.00000000
H        0.90279827       0.46149948       0.92702971      -0.10413200      -0.35054694      -0.16633581       0.00000000
H        0.66508504       0.99869340       0.81253574       0.21691697      -0.04803124      -0.08890666       0.00000000
H        0.56226131       0.01950520       0.80208740      -0.30729147       0.03192247      -0.12071916       0.00000000
H        0.89517829       0.12562491       0.81681258       0.14094773      -0.40823372       0.02022061       0.00000000
H        0.92669960       0.25288548       0.80908633      -0.12182756       0.27636562      -0.03088575       0.00000000
H        0.75130912       0.08491772       0.93746771       0.15073391      -0.16499759       0.08866960       0.00000000
H        0.65953923       0.25796113       0.81180930      -0.12621080      -0.17323860       0.06180411       0.00000000
H        0.74868826       0.41508112       0.56253256      -0.15049679       0.16481600      -0.08875551       0.00000000
H        0.65953867       0.25796037       0.31181022      -0.12616432      -0.17314510       0.06185839       0.00000000
H        0.87562098       0.14517529       0.06681314      -0.42336568      -0.08138562       0.02021405       0.00000000
H        0.50288703       0.17670619       0.05908765       0.29970900       0.03224556      -0.03075759       0.00000000
H        0.00796942       0.40953758       0.06180890      -0.08716374      -0.19593666       0.06180656       0.00000000
H        0.59720353       0.03850289       0.07296842       0.10410487       0.35058136       0.16633682       0.00000000
H        0.83491488       0.50130802       0.18746738      -0.21711761       0.04804895       0.08885461       0.00000000
H        0.93774009       0.48049640       0.19790801       0.30747052      -0.03188453       0.12069627       0.00000000
H        0.60482073       0.37437599       0.18318678      -0.14063374       0.40764122      -0.02019972       0.00000000
H        0.57329506       0.24711243       0.19091538       0.12168109      -0.27582982       0.03077744       0.00000000
H        0.84046205       0.24203555       0.18819318       0.12621406       0.17319461      -0.06182261       0.00000000
H        0.78850113       0.34720756       0.32296977       0.25159756       0.26493936       0.16630141       0.00000000
H        0.71150085       0.15279570       0.17702708      -0.25173448      -0.26492051      -0.16638630       0.00000000
H        0.73049107       0.18773439       0.44790941      -0.18166655       0.25138741       0.12087625       0.00000000
H        0.62437801       0.35482587       0.43318744       0.42336609       0.08137341      -0.02022834       0.00000000
H        0.99711520       0.32329852       0.44091285      -0.29978922      -0.03225918       0.03083477       0.00000000
H        0.49203499       0.09046082       0.43819231       0.08692912       0.19589551      -0.06178180       0.00000000
H        0.90279820       0.46150080       0.42703034      -0.10410793      -0.35080941      -0.16646841       0.00000000
H        0.66508537       0.99869365       0.31253538       0.21720401      -0.04810405      -0.08884358       0.00000000
H        0.56226251       0.01950556       0.30208784      -0.30751049       0.03188309      -0.12082384       0.00000000
H        0.89517726       0.12562285       0.31681207       0.14084055      -0.40789373       0.02018382       0.00000000
H        0.92670304       0.25288643       0.30908714      -0.12169845       0.27609293      -0.03080220       0.00000000
H        0.75130942       0.08491759       0.43746915       0.15067027      -0.16485662       0.08870101       0.00000000
H        0.76951032       0.31226693       0.05208976       0.18169871      -0.25130439      -0.12082007       0.00000000
H        0.78850022       0.34720996       0.82297119       0.25169189       0.26492454       0.16632938       0.00000000
H        0.76950842       0.81226453       0.05208859       0.18160461      -0.25125207      -0.12090799       0.00000000
H        0.87562281       0.64517537       0.56681325      -0.42358888      -0.08149319       0.02025424       0.00000000
H        0.50288683       0.67670523       0.55908709       0.29963642       0.03211952      -0.03077464       0.00000000
H        0.00796523       0.90953768       0.56180794      -0.08699842      -0.19609317       0.06167619       0.00000000
H        0.59720595       0.53850116       0.57297000       0.10400891       0.35054482       0.16633864       0.00000000
H        0.83491690       0.00130723       0.68746635      -0.21681302       0.04794426       0.08893586       0.00000000
H        0.93774052       0.98049317       0.69791155       0.30713976      -0.03191373       0.12073637       0.00000000
H        0.60482417       0.87437827       0.68318720      -0.14071836       0.40768221      -0.02018320       0.00000000
H        0.57329676       0.74711359       0.69091368       0.12170948      -0.27586924       0.03083764       0.00000000
H        0.84046186       0.74203444       0.68819044       0.12597556       0.17293700      -0.06188719       0.00000000
H        0.76950910       0.81226496       0.55209149       0.18167792      -0.25131880      -0.12082915       0.00000000
H        0.71149602       0.65279190       0.67703060      -0.25138182      -0.26465045      -0.16623390       0.00000000
H        0.73049362       0.68773321       0.94791016      -0.18184272       0.25143405       0.12090295       0.00000000
H        0.62437707       0.85482362       0.93318621       0.42364502       0.08144329      -0.02015627       0.00000000
H        0.99711511       0.82329836       0.94091356      -0.29973574      -0.03216276       0.03079837       0.00000000
H        0.49203707       0.59046172       0.93819056       0.08710809       0.19623093      -0.06173778       0.00000000
H        0.90279483       0.96149943       0.92702963      -0.10415637      -0.35054489      -0.16632870       0.00000000
H        0.66508406       0.49869016       0.81253218       0.21711168      -0.04792743      -0.08885288       0.00000000
H        0.56226111       0.51950542       0.80209040      -0.30742726       0.03198659      -0.12073262       0.00000000
H        0.89517806       0.62562186       0.81681424       0.14073061      -0.40769792       0.02016924       0.00000000
H        0.92670322       0.75288514       0.80908593      -0.12171252       0.27593451      -0.03085639       0.00000000
H        0.75130977       0.58491667       0.93746573       0.15064248      -0.16493778       0.08868159       0.00000000
H        0.74869343       0.91508192       0.06253439      -0.15055905       0.16474516      -0.08873292       0.00000000
H        0.74868959       0.91508073       0.56253231      -0.15067304       0.16496002      -0.08870311       0.00000000
H        0.65953791       0.75796340       0.31180797      -0.12619647      -0.17310884       0.06179812       0.00000000
H        0.87562155       0.64517429       0.06681489      -0.42345643      -0.08148701       0.02021337       0.00000000
H        0.50288628       0.67670660       0.05908308       0.29957589       0.03221793      -0.03080537       0.00000000
H        0.00796579       0.90953545       0.06180848      -0.08703280      -0.19570691       0.06188115       0.00000000
H        0.59720261       0.53850177       0.07297014       0.10406358       0.35068532       0.16640424       0.00000000
H        0.83491409       0.00130725       0.18746701      -0.21673395       0.04799979       0.08886806       0.00000000
H        0.93773728       0.98049229       0.19791162       0.30718398      -0.03178679       0.12063428       0.00000000
H        0.60482096       0.87437675       0.18318772      -0.14078319       0.40803999      -0.02015584       0.00000000
H        0.57329695       0.74711421       0.19091321       0.12182531      -0.27617624       0.03086502       0.00000000
H        0.84046019       0.74203777       0.18818861       0.12630923       0.17325548      -0.06175119       0.00000000
H        0.78850060       0.84720469       0.32297143       0.25152981       0.26493919       0.16633169       0.00000000
H        0.71149805       0.65278982       0.17703039      -0.25178780      -0.26498253      -0.16629617       0.00000000
H        0.73048941       0.68773219       0.44791404      -0.18167610       0.25123092       0.12089659       0.00000000
H        0.62437999       0.85482490       0.43318612       0.42327363       0.08144536      -0.02022255       0.00000000
H        0.99711111       0.82329469       0.44091310      -0.29934244      -0.03211790       0.03075667       0.00000000
H        0.49203429       0.59046170       0.43819173       0.08705397       0.19617432      -0.06175877       0.00000000
H        0.90279514       0.96149739       0.42703131      -0.10397616      -0.35033794      -0.16641725       0.00000000
H        0.66508130       0.49868846       0.31253287       0.21687466      -0.04790577      -0.08888180       0.00000000
H        0.56225938       0.51950586       0.30208965      -0.30721393       0.03193994      -0.12071132       0.00000000
H        0.89517707       0.62562111       0.31681241       0.14073787      -0.40776028       0.02024226       0.00000000
H        0.92670150       0.75288427       0.30908561      -0.12171455       0.27603252      -0.03083500       0.00000000
H        0.75130970       0.58491934       0.43746373       0.15054804      -0.16482781       0.08865423       0.00000000
H        0.74869006       0.41508198       0.06253173      -0.15058795       0.16488022      -0.08864672       0.00000000
H        0.28850175       0.84720830       0.82297139       0.25166149       0.26500102       0.16631189       0.00000000
H        0.15954056       0.75796125       0.81180952      -0.12630628      -0.17313750       0.06179124       0.00000000
H        0.26950709       0.31226697       0.55208581       0.18165758      -0.25126209      -0.12095084       0.00000000
H        0.37562019       0.14517690       0.56681318      -0.42341256      -0.08143372       0.02018764       0.00000000
H        0.00288714       0.17670287       0.55908632       0.29973764       0.03227670      -0.03084359       0.00000000
H        0.50796295       0.40953868       0.56181050      -0.08712265      -0.19607700       0.06174481       0.00000000
H        0.09720209       0.03849970       0.57297109       0.10415576       0.35066454       0.16634605       0.00000000
H        0.33491529       0.50131130       0.68746487      -0.21668116       0.04806365       0.08890684       0.00000000
H        0.43773596       0.48049304       0.69791253       0.30709801      -0.03187077       0.12072017       0.00000000
H        0.10482311       0.37437706       0.68318932      -0.14083623       0.40799647      -0.02015875       0.00000000
H        0.07329615       0.24711325       0.69091306       0.12173702      -0.27620007       0.03081667       0.00000000
H        0.24869094       0.41508268       0.56253625      -0.15049196       0.16476556      -0.08868082       0.00000000
H        0.34046281       0.24203791       0.68819271       0.12624085       0.17319526      -0.06184389       0.00000000
H        0.25130583       0.08491482       0.93746704       0.15050525      -0.16478264       0.08868848       0.00000000
H        0.23049372       0.18773521       0.94791056      -0.18159543       0.25124884       0.12089106       0.00000000
H        0.12437827       0.35482324       0.93318644       0.42336683       0.08143808      -0.02018624       0.00000000
H        0.49711342       0.32329710       0.94091248      -0.29981185      -0.03225981       0.03081265       0.00000000
H        0.99203552       0.09046180       0.93819060       0.08705447       0.19601435      -0.06172483       0.00000000
H        0.40279526       0.46149933       0.92703102      -0.10405943      -0.35063858      -0.16639965       0.00000000
H        0.16508542       0.99869202       0.81252923       0.21690847      -0.04811299      -0.08890552       0.00000000
H        0.06226104       0.01950773       0.80209242      -0.30727224       0.03188320      -0.12063727       0.00000000
H        0.39517765       0.12562397       0.81681257       0.14082385      -0.40801138       0.02027447       0.00000000
H        0.21150098       0.15279743       0.67702804      -0.25172932      -0.26491838      -0.16637822       0.00000000
H        0.42670691       0.25288803       0.80908730      -0.12179724       0.27622799      -0.03078992       0.00000000
H        0.28850028       0.34720597       0.32297154       0.25178853       0.26500630       0.16628819       0.00000000
H        0.42670356       0.25288521       0.30908606      -0.12169059       0.27601425      -0.03080256       0.00000000
H        0.26951065       0.31226660       0.05208979       0.18156517      -0.25124239      -0.12081452       0.00000000
H        0.37562080       0.14517406       0.06681178      -0.42352466      -0.08147679       0.02019460       0.00000000
H        0.00288637       0.17670231       0.05908725       0.29958715       0.03217136      -0.03082002       0.00000000
H        0.50796750       0.40953872       0.06180917      -0.08712498      -0.19621351       0.06176040       0.00000000
H        0.09720243       0.03850003       0.07297051       0.10401283       0.35018436       0.16636335       0.00000000
H        0.33491330       0.50130633       0.18746564      -0.21684973       0.04808091       0.08889931       0.00000000
H        0.43773837       0.48049454       0.19790986       0.30723373      -0.03181247       0.12074149       0.00000000
H        0.10482176       0.37437882       0.18318876      -0.14077544       0.40789438      -0.02020348       0.00000000
H        0.07329788       0.24711538       0.19091110       0.12175283      -0.27614022       0.03085768       0.00000000
H        0.15953835       0.25796470       0.31180909      -0.12631495      -0.17329607       0.06167797       0.00000000
H        0.34046024       0.24203794       0.18819076       0.12619433       0.17314939      -0.06178150       0.00000000
H        0.25130778       0.08491557       0.43746709       0.15058004      -0.16478329       0.08875126       0.00000000
H        0.23048907       0.18773188       0.44790936      -0.18162456       0.25129203       0.12089828       0.00000000
H        0.12437965       0.35482530       0.43318642       0.42344567       0.08138574      -0.02020275       0.00000000
H        0.49711177       0.32329530       0.44091343      -0.29958005      -0.03225596       0.03076113       0.00000000
H        0.99203382       0.09046191       0.43819144       0.08702303       0.19590535      -0.06186722       0.00000000
H        0.40279578       0.46149936       0.42702979      -0.10403295      -0.35059014      -0.16635182       0.00000000
H        0.16508307       0.99869234       0.31253288       0.21693660      -0.04804547      -0.08893601       0.00000000
H        0.06225768       0.01950382       0.30209090      -0.30736697       0.03190118      -0.12072220       0.00000000
H        0.39517603       0.12562130       0.31681312       0.14074882      -0.40783309       0.02022914       0.00000000
H        0.21149806       0.15279256       0.17702854      -0.25170342      -0.26495853      -0.16624516       0.00000000
H        0.15953681       0.25796643       0.81180752      -0.12611628      -0.17309989       0.06186492       0.00000000
H        0.28850109       0.34720470       0.82297012       0.25153867       0.26483929       0.16633625       0.00000000
H        0.24868833       0.91507990       0.06253371      -0.15063673       0.16490551      -0.08861044       0.00000000
H        0.37562125       0.64517755       0.56681315      -0.42330486      -0.08142491       0.02020020       0.00000000
H        0.00288696       0.67670256       0.55908605       0.29978030       0.03224369      -0.03076080       0.00000000
H        0.50796653       0.90953830       0.56180983      -0.08712196      -0.19591211       0.06183754       0.00000000
H        0.09720508       0.53850116       0.57297009       0.10400063       0.35053242       0.16633070       0.00000000
H        0.33491467       0.00130928       0.68746611      -0.21703613       0.04803705       0.08886294       0.00000000
H        0.43773873       0.98049727       0.69791079       0.30740989      -0.03197873       0.12074565       0.00000000
H        0.10482216       0.87437707       0.68318813      -0.14074527       0.40793826      -0.02018132       0.00000000
H        0.07329682       0.74711372       0.69091303       0.12173261      -0.27607386       0.03086969       0.00000000
H        0.34046200       0.74204074       0.68819105       0.12599809       0.17293512      -0.06181523       0.00000000
H        0.26950864       0.81226777       0.55208845       0.18173500      -0.25134906      -0.12086795       0.00000000
H        0.21149890       0.65279452       0.67702881      -0.25139287      -0.26473414      -0.16621371       0.00000000
H        0.23049211       0.68773233       0.94791026      -0.18178879       0.25132333       0.12087723       0.00000000
H        0.12437838       0.85482187       0.93318464       0.42332677       0.08151754      -0.02023065       0.00000000
H        0.49711389       0.82330055       0.94091191      -0.29976090      -0.03227014       0.03088348       0.00000000
H        0.99203589       0.59046259       0.93819171       0.08698210       0.19601350      -0.06174630       0.00000000
H        0.40279496       0.96150085       0.92703097      -0.10415053      -0.35056155      -0.16636286       0.00000000
H        0.16508539       0.49869379       0.81253487       0.21678925      -0.04798633      -0.08888752       0.00000000
H        0.06226157       0.51950619       0.80208772      -0.30723461       0.03185962      -0.12072708       0.00000000
H        0.39517572       0.62562239       0.81681223       0.14079061      -0.40785330       0.02015094       0.00000000
H        0.42670422       0.75288667       0.80908725      -0.12174929       0.27606330      -0.03086661       0.00000000
H        0.25131150       0.58491705       0.93746786       0.15060941      -0.16489697       0.08867584       0.00000000
H        0.24868927       0.91508255       0.56253184      -0.15067575       0.16502675      -0.08868975       0.00000000
H        0.28850028       0.84720865       0.32297203       0.25168869       0.26499286       0.16628398       0.00000000
H        0.15953926       0.75796224       0.31180960      -0.12627857      -0.17321847       0.06173558       0.00000000
H        0.26951107       0.81226787       0.05208708       0.18175545      -0.25130984      -0.12091462       0.00000000
H        0.37562103       0.64517335       0.06681681      -0.42337858      -0.08141683       0.02030866       0.00000000
H        0.00288648       0.67670462       0.05908464       0.29966520       0.03220131      -0.03082883       0.00000000
H        0.50796725       0.90953879       0.06181027      -0.08711835      -0.19613396       0.06178329       0.00000000
H        0.09720290       0.53850259       0.07296916       0.10401512       0.35039369       0.16635546       0.00000000
H        0.33491603       0.00130844       0.18746638      -0.21720090       0.04802326       0.08883685       0.00000000
H        0.43773927       0.98049552       0.19790987       0.30750838      -0.03194959       0.12072603       0.00000000
H        0.10482188       0.87437599       0.18318983      -0.14088724       0.40810351      -0.02021551       0.00000000
H        0.07329621       0.74711301       0.19091247       0.12181110      -0.27628049       0.03083597       0.00000000
H        0.34046115       0.74203610       0.18819259       0.12636508       0.17339249      -0.06176443       0.00000000
H        0.21150077       0.65279391       0.17702855      -0.25186157      -0.26502544      -0.16638958       0.00000000
H        0.25131169       0.58491828       0.43746667       0.15071080      -0.16499880       0.08862363       0.00000000
H        0.23049205       0.68773192       0.44791234      -0.18189019       0.25151709       0.12091272       0.00000000
H        0.12437799       0.85482483       0.43318587       0.42314270       0.08143384      -0.02018155       0.00000000
H        0.49711460       0.82329746       0.44091357      -0.29947105      -0.03218065       0.03076443       0.00000000
H        0.99203612       0.59046313       0.43819079       0.08711690       0.19625988      -0.06176725       0.00000000
H        0.40279830       0.96149690       0.42702998      -0.10413584      -0.35024562      -0.16632839       0.00000000
H        0.16508461       0.49869417       0.31253524       0.21696520      -0.04795153      -0.08882978       0.00000000
H        0.06226113       0.51950560       0.30208711      -0.30742751       0.03192841      -0.12075831       0.00000000
H        0.39517642       0.62562249       0.31681244       0.14085915      -0.40792619       0.02016332       0.00000000
H        0.42670312       0.75288611       0.30908765      -0.12176196       0.27613823      -0.03085623       0.00000000
H        0.65953710       0.75796099       0.81181067      -0.12616425      -0.17299730       0.06182119       0.00000000
H        0.78850185       0.84720538       0.82296852       0.25154988       0.26493536       0.16628326       0.00000000
192
Lattice="6.22321522 0.0 0.0 -3.10548432 5.39298588 0.0 0.0 0.0 11.097194" Properties=species:S:1:pos:R:3:forces:R:3:energies:R:1 energy=-430.98911445 pbc="T T T"
H        0.24971718       0.41516124       0.06268412      -0.25648048       0.26917523      -0.07081424       0.00000000
H        0.87575636       0.14558083       0.56656354      -0.50947239      -0.08552261       0.03088877       0.00000000
H        0.50239879       0.17621937       0.55921749       0.37564984       0.06214080      -0.03574823       0.00000000
H        0.00799158       0.41019619       0.56179290      -0.10220557      -0.32068207       0.04703950       0.00000000
H        0.59762770       0.03824938       0.57270352       0.14582064       0.47251161       0.19143896       0.00000000
H        0.83483574       0.50028107       0.68731130      -0.35958137       0.08764531       0.07117569       0.00000000
H        0.93791131       0.48104094       0.69779160       0.46213288      -0.03651671       0.14884776       0.00000000
H        0.60441712       0.37424575       0.68343719      -0.17973876       0.48344794      -0.03064659       0.00000000
H        0.57378111       0.24759693       0.69078261       0.13346378      -0.35569433       0.03577903       0.00000000
H        0.83980820       0.24201193       0.68820740       0.22580131       0.24763991      -0.04724441       0.00000000
H        0.76896032       0.31209412       0.55220952       0.26338165      -0.38378756      -0.14913276       0.00000000
H        0.71174887       0.15236893       0.67729674      -0.33565689      -0.36112588      -0.19112432       0.00000000
H        0.73104208       0.18790607       0.94779094      -0.26361857       0.38413242       0.14914282       0.00000000
H        0.62424408       0.35441755       0.93343801       0.50957186       0.08551951      -0.03082154       0.00000000
H        0.99760023       0.32378101       0.94078133      -0.37593468      -0.06228123       0.03578615       0.00000000
H        0.49201065       0.08980457       0.93820840       0.10227352       0.32072232      -0.04703073       0.00000000
H        0.90237528       0.46175191       0.92729656      -0.14581206      -0.47253507      -0.19140792       0.00000000
H        0.66516458       0.99971922       0.81268992       0.35969916      -0.08759430      -0.07117806       0.00000000
H        0.56208809       0.01895674       0.80220736      -0.46221804       0.03653975      -0.14896306       0.00000000
H        0.89558343       0.12575567       0.81656297       0.17975701      -0.48362495       0.03071450       0.00000000
H        0.92621614       0.25240245       0.80921724      -0.13355790       0.35589298      -0.03570756       0.00000000
H        0.75028251       0.08483917       0.93731367       0.25667799      -0.26945297       0.07081768       0.00000000
H        0.66019422       0.25798611       0.81179181      -0.22572377      -0.24768687       0.04724358       0.00000000
H        0.74971522       0.41515971       0.56268666      -0.25653843       0.26922235      -0.07086293       0.00000000
H        0.66019373       0.25798514       0.31179279      -0.22582045      -0.24764442       0.04721278       0.00000000
H        0.87575506       0.14558162       0.06656306      -0.50937227      -0.08556154       0.03086850       0.00000000
H        0.50239988       0.17622079       0.05921868       0.37595101       0.06225389      -0.03578012       0.00000000
H        0.00799616       0.41019600       0.06179163      -0.10228174      -0.32088030       0.04700336       0.00000000
H        0.59762643       0.03825019       0.07270168       0.14586049       0.47272511       0.19146771       0.00000000
H        0.83483467       0.50028235       0.18731293      -0.35945797       0.08750436       0.07128747       0.00000000
H        0.93791428       0.48104488       0.19778858       0.46196719      -0.03665537       0.14885195       0.00000000
H        0.60441588       0.37424486       0.18343651      -0.17970054       0.48333710      -0.03071454       0.00000000
H        0.57377908       0.24759579       0.19078423       0.13348096      -0.35554286       0.03572515       0.00000000
H        0.83980690       0.24201085       0.18821037       0.22585658       0.24772414      -0.04714200       0.00000000
H        0.78825179       0.34763278       0.32270332       0.33572447       0.36122982       0.19113388       0.00000000
H        0.71174979       0.15237043       0.17729377      -0.33568502      -0.36122766      -0.19118908       0.00000000
H        0.73104018       0.18790630       0.44778984      -0.26347767       0.38385507       0.14906466       0.00000000
H        0.62424361       0.35441965       0.43343740       0.50954743       0.08559572      -0.03084511       0.00000000
H        0.99760196       0.32378341       0.44078194      -0.37591328      -0.06228029       0.03579808       0.00000000
H        0.49200785       0.08980240       0.43820947       0.10228265       0.32078465      -0.04703391       0.00000000
H        0.90237523       0.46175296       0.42729703      -0.14589810      -0.47256019      -0.19138659       0.00000000
H        0.66516520       0.99971925       0.31268939       0.35962906      -0.08755882      -0.07116454       0.00000000
H        0.56208895       0.01895720       0.30220757      -0.46227816       0.03656068      -0.14892461       0.00000000
H        0.89558241       0.12575353       0.31656254       0.17973409      -0.48333396       0.03068544       0.00000000
H        0.92621955       0.25240354       0.30921791      -0.13343769       0.35566925      -0.03567707       0.00000000
H        0.75028297       0.08483889       0.43731497       0.25652451      -0.26924722       0.07082781       0.00000000
H        0.76896142       0.31209469       0.05220960       0.26340555      -0.38371812      -0.14912507       0.00000000
H        0.78825109       0.34763500       0.82270461       0.33560844       0.36111485       0.19114190       0.00000000
H        0.76895982       0.81209278       0.05220828       0.26339504      -0.38388856      -0.14915909       0.00000000
H        0.87575627       0.64558095       0.56656332      -0.50946096      -0.08553029       0.03086066       0.00000000
H        0.50239998       0.67622015       0.55921808       0.37571687       0.06214635      -0.03575534       0.00000000