 192 192   0   0
  0.1939796E+01  0.6223215E-09  0.6223209E-09  0.1109719E-08  0.1000000E-14
   0.0000000000000000     
  CAR 
 unknown system                          
     27.75842926    -17.85734977  301      3.81014527      1.00000000
    -17.857  0.0000E+00  0.0000E+00
    -17.705  0.0000E+00  0.0000E+00
    -17.553  0.0000E+00  0.0000E+00
    -17.401  0.0000E+00  0.0000E+00
    -17.249  0.0000E+00  0.0000E+00
    -17.097  0.0000E+00  0.0000E+00
    -16.945  0.0000E+00  0.0000E+00
    -16.793  0.0000E+00  0.0000E+00
    -16.641  0.0000E+00  0.0000E+00
    -16.489  0.0000E+00  0.0000E+00
    -16.337  0.0000E+00  0.0000E+00
    -16.185  0.0000E+00  0.0000E+00
    -16.033  0.0000E+00  0.0000E+00
    -15.881  0.0000E+00  0.0000E+00
    -15.729  0.1336E+02  0.2000E+01
    -15.577  0.0000E+00  0.2000E+01
    -15.425  0.0000E+00  0.2000E+01
    -15.272  0.0000E+00  0.2000E+01
    -15.120  0.0000E+00  0.2000E+01
    -14.968  0.0000E+00  0.2000E+01
    -14.816  0.0000E+00  0.2000E+01
    -14.664  0.1672E+00  0.2025E+01
    -14.512  0.1670E+01  0.6000E+01
    -14.360  0.0000E+00  0.6000E+01
    -14.208  0.0000E+00  0.6000E+01
    -14.056  0.0000E+00  0.6000E+01
    -13.904  0.0000E+00  0.6000E+01
    -13.752  0.0000E+00  0.6000E+01
    -13.600  0.0000E+00  0.6000E+01
    -13.448  0.0000E+00  0.6000E+01
    -13.296  0.0000E+00  0.6000E+01
    -13.144  0.0000E+00  0.6000E+01
    -12.992  0.0000E+00  0.6000E+01
    -12.840  0.0000E+00  0.6000E+01
    -12.688  0.0000E+00  0.6000E+01
    -12.536  0.0000E+00  0.6000E+01
    -12.383  0.0000E+00  0.6000E+01
    -12.231  0.0000E+00  0.6000E+01
    -12.079  0.0000E+00  0.6000E+01
    -11.927  0.0000E+00  0.6000E+01
    -11.775  0.0000E+00  0.6000E+01
    -11.623  0.0000E+00  0.6000E+01
    -11.471  0.0000E+00  0.6000E+01
    -11.319  0.1370E-03  0.6000E+01
    -11.167  0.1304E+02  0.8805E+01
    -11.015  0.2194E+01  0.9840E+01
    -10.863  0.1389E+02  0.1270E+02
    -10.711  0.2472E+02  0.1895E+02
    -10.559  0.6559E+01  0.2156E+02
    -10.407  0.0000E+00  0.2200E+02
    -10.255  0.0000E+00  0.2200E+02
    -10.103  0.0000E+00  0.2200E+02
     -9.951  0.1127E+01  0.2217E+02
     -9.799  0.1297E+02  0.2556E+02
     -9.647  0.4433E+02  0.3427E+02
     -9.494  0.2994E+02  0.4143E+02
     -9.342  0.7175E+01  0.4535E+02
     -9.190  0.5588E+00  0.4600E+02
     -9.038  0.0000E+00  0.4600E+02
     -8.886  0.0000E+00  0.4600E+02
     -8.734  0.0000E+00  0.4600E+02
     -8.582  0.0000E+00  0.4600E+02
     -8.430  0.0000E+00  0.4600E+02
     -8.278  0.0000E+00  0.4600E+02
     -8.126  0.0000E+00  0.4600E+02
     -7.974  0.0000E+00  0.4600E+02
     -7.822  0.0000E+00  0.4600E+02
     -7.670  0.0000E+00  0.4600E+02
     -7.518  0.0000E+00  0.4600E+02
     -7.366  0.0000E+00  0.4600E+02
     -7.214  0.0000E+00  0.4600E+02
     -7.062  0.0000E+00  0.4600E+02
     -6.910  0.0000E+00  0.4600E+02
     -6.758  0.0000E+00  0.4600E+02
     -6.605  0.5978E+01  0.4691E+02
     -6.453  0.1527E+02  0.5100E+02
     -6.301  0.3375E+02  0.6044E+02
     -6.149  0.1501E+02  0.6484E+02
     -5.997  0.1439E+02  0.6922E+02
     -5.845  0.6895E+01  0.7230E+02
     -5.693  0.4310E+01  0.7352E+02
     -5.541  0.1023E+01  0.7383E+02
     -5.389  0.1091E+01  0.7400E+02
     -5.237  0.0000E+00  0.7400E+02
     -5.085  0.0000E+00  0.7400E+02
     -4.933  0.0000E+00  0.7400E+02
     -4.781  0.0000E+00  0.7400E+02
     -4.629  0.0000E+00  0.7400E+02
     -4.477  0.0000E+00  0.7400E+02
     -4.325  0.0000E+00  0.7400E+02
     -4.173  0.0000E+00  0.7400E+02
     -4.021  0.0000E+00  0.7400E+02
     -3.869  0.0000E+00  0.7400E+02
     -3.716  0.0000E+00  0.7400E+02
     -3.564  0.0000E+00  0.7400E+02
     -3.412  0.0000E+00  0.7400E+02
     -3.260  0.0000E+00  0.7400E+02
     -3.108  0.0000E+00  0.7400E+02
     -2.956  0.4477E-13  0.7400E+02
     -2.804  0.1052E+01  0.7432E+02
     -2.652  0.1565E+01  0.7480E+02
     -2.500  0.3149E+00  0.7525E+02
     -2.348  0.2092E+01  0.7576E+02
     -2.196  0.1332E+02  0.7833E+02
     -2.044  0.9569E+01  0.8116E+02
     -1.892  0.8620E+01  0.8425E+02
     -1.740  0.1108E+02  0.8670E+02
     -1.588  0.1194E+02  0.8991E+02
     -1.436  0.9095E+01  0.9196E+02
     -1.284  0.1479E+02  0.9546E+02
     -1.132  0.1943E+02  0.1006E+03
     -0.980  0.1337E+02  0.1042E+03
     -0.827  0.7910E+01  0.1065E+03
     -0.675  0.9690E+01  0.1091E+03
     -0.523  0.1358E+02  0.1133E+03
     -0.371  0.1297E+02  0.1170E+03
     -0.219  0.6356E+01  0.1196E+03
     -0.067  0.8657E+01  0.1217E+03
      0.085  0.9884E+01  0.1240E+03
      0.237  0.8003E+01  0.1267E+03
      0.389  0.1902E+02  0.1312E+03
      0.541  0.1079E+02  0.1348E+03
      0.693  0.1443E+02  0.1388E+03
      0.845  0.1298E+02  0.1433E+03
      0.997  0.5642E+01  0.1453E+03
      1.149  0.3590E+01  0.1463E+03
      1.301  0.2741E+01  0.1473E+03
      1.453  0.1342E+01  0.1476E+03
      1.605  0.1474E+01  0.1480E+03
      1.757  0.1034E+02  0.1502E+03
      1.909  0.1094E+02  0.1531E+03
      2.062  0.1452E+02  0.1574E+03
      2.214  0.1109E+02  0.1605E+03
      2.366  0.1703E+02  0.1652E+03
      2.518  0.2152E+02  0.1709E+03
      2.670  0.1737E+02  0.1751E+03
      2.822  0.1274E+02  0.1784E+03
      2.974  0.1201E+02  0.1815E+03
      3.126  0.9397E+01  0.1841E+03
      3.278  0.6741E+01  0.1863E+03
      3.430  0.3952E+01  0.1876E+03
      3.582  0.4911E+01  0.1889E+03
      3.734  0.4379E+01  0.1898E+03
      3.886  0.3067E+01  0.1907E+03
      4.038  0.1911E+01  0.1914E+03
      4.190  0.8162E+00  0.1917E+03
      4.342  0.0000E+00  0.1918E+03
      4.494  0.5515E+00  0.1918E+03
      4.646  0.3007E+00  0.1919E+03
      4.798  0.5565E+00  0.1920E+03
      4.951  0.0000E+00  0.1920E+03
      5.103  0.0000E+00  0.1920E+03
      5.255  0.0000E+00  0.1920E+03
      5.407  0.0000E+00  0.1920E+03
      5.559  0.0000E+00  0.1920E+03
      5.711  0.0000E+00  0.1920E+03
      5.863  0.0000E+00  0.1920E+03
      6.015  0.0000E+00  0.1920E+03
      6.167  0.0000E+00  0.1920E+03
      6.319  0.0000E+00  0.1920E+03
      6.471  0.0000E+00  0.1920E+03
      6.623  0.0000E+00  0.1920E+03
      6.775  0.0000E+00  0.1920E+03
      6.927  0.0000E+00  0.1920E+03
      7.079  0.5253E+00  0.1921E+03
      7.231  0.8940E+00  0.1923E+03
      7.383  0.5760E+01  0.1937E+03
      7.535  0.6551E+01  0.1958E+03
      7.687  0.5434E+01  0.1973E+03
      7.840  0.3305E+01  0.1984E+03
      7.992  0.4515E+01  0.1995E+03
      8.144  0.7072E+01  0.2014E+03
      8.296  0.1111E+02  0.2044E+03
      8.448  0.1291E+02  0.2077E+03
      8.600  0.5742E+01  0.2101E+03
      8.752  0.4541E+01  0.2114E+03
      8.904  0.4250E+01  0.2130E+03
      9.056  0.2309E+01  0.2138E+03
      9.208  0.3253E+01  0.2146E+03
      9.360  0.7906E+01  0.2169E+03
      9.512  0.6083E+01  0.2199E+03
      9.664  0.6567E+01  0.2215E+03
      9.816  0.2711E+01  0.2223E+03
      9.968  0.1619E+01  0.2227E+03
     10.120  0.9686E+01  0.2247E+03
     10.272  0.3808E+01  0.2264E+03
     10.424  0.2332E+01  0.2270E+03
     10.576  0.7819E+00  0.2274E+03
     10.729  0.5081E+01  0.2286E+03
     10.881  0.1694E+01  0.2291E+03
     11.033  0.3565E+01  0.2301E+03
     11.185  0.3519E+01  0.2315E+03
     11.337  0.1395E+02  0.2346E+03
     11.489  0.8008E+01  0.2383E+03
     11.641  0.8760E+01  0.2404E+03
     11.793  0.6066E+01  0.2421E+03
     11.945  0.5199E+01  0.2435E+03
     12.097  0.2658E+01  0.2450E+03
     12.249  0.4790E+01  0.2461E+03
     12.401  0.6347E+01  0.2479E+03
     12.553  0.5368E+01  0.2495E+03
     12.705  0.3963E+01  0.2506E+03
     12.857  0.6454E+01  0.2524E+03
     13.009  0.2779E+01  0.2537E+03
     13.161  0.3752E+01  0.2548E+03
     13.313  0.2088E+01  0.2554E+03
     13.465  0.1090E+01  0.2557E+03
     13.618  0.2463E+01  0.2562E+03
     13.770  0.3531E+01  0.2573E+03
     13.922  0.2825E+01  0.2580E+03
     14.074  0.4126E+01  0.2591E+03
     14.226  0.4733E+01  0.2604E+03
     14.378  0.1870E+01  0.2609E+03
     14.530  0.1384E+01  0.2614E+03
     14.682  0.3404E+01  0.2623E+03
     14.834  0.3045E+01  0.2637E+03
     14.986  0.1101E+02  0.2668E+03
     15.138  0.1613E+02  0.2712E+03
     15.290  0.1259E+02  0.2746E+03
     15.442  0.7007E+01  0.2769E+03
     15.594  0.6512E+01  0.2787E+03
     15.746  0.8354E+01  0.2807E+03
     15.898  0.7315E+01  0.2832E+03
     16.050  0.6087E+01  0.2846E+03
     16.202  0.4932E+01  0.2860E+03
     16.354  0.4771E+01  0.2871E+03
     16.507  0.7670E+01  0.2887E+03
     16.659  0.4270E+01  0.2899E+03
     16.811  0.8566E+01  0.2919E+03
     16.963  0.2496E+01  0.2932E+03
     17.115  0.6104E+01  0.2943E+03
     17.267  0.8550E+01  0.2970E+03
     17.419  0.2759E+01  0.2978E+03
     17.571  0.2243E+01  0.2986E+03
     17.723  0.2315E+01  0.2994E+03
     17.875  0.3126E+01  0.3001E+03
     18.027  0.1105E+02  0.3031E+03
     18.179  0.4095E+01  0.3046E+03
     18.331  0.8120E+01  0.3063E+03
     18.483  0.7614E+01  0.3092E+03
     18.635  0.8166E+01  0.3113E+03
     18.787  0.1830E+02  0.3164E+03
     18.939  0.1816E+02  0.3220E+03
     19.091  0.1097E+02  0.3255E+03
     19.243  0.1241E+02  0.3296E+03
     19.396  0.7461E+01  0.3322E+03
     19.548  0.1080E+02  0.3352E+03
     19.700  0.1196E+02  0.3386E+03
     19.852  0.8492E+01  0.3410E+03
     20.004  0.5841E+01  0.3433E+03
     20.156  0.6043E+01  0.3449E+03
     20.308  0.4428E+01  0.3469E+03
     20.460  0.4824E+01  0.3485E+03
     20.612  0.7261E+01  0.3504E+03
     20.764  0.7740E+01  0.3525E+03
     20.916  0.6588E+01  0.3548E+03
     21.068  0.1199E+02  0.3576E+03
     21.220  0.7233E+01  0.3599E+03
     21.372  0.5339E+01  0.3618E+03
     21.524  0.7536E+01  0.3638E+03
     21.676  0.9946E+01  0.3662E+03
     21.828  0.8984E+01  0.3688E+03
     21.980  0.8109E+01  0.3712E+03
     22.132  0.7707E+01  0.3730E+03
     22.285  0.5591E+01  0.3746E+03
     22.437  0.3740E+01  0.3759E+03
     22.589  0.5816E+01  0.3773E+03
     22.741  0.6399E+01  0.3789E+03
     22.893  0.3851E+01  0.3801E+03
     23.045  0.5745E+01  0.3814E+03
     23.197  0.3850E+01  0.3823E+03
     23.349  0.2467E+01  0.3829E+03
     23.501  0.1666E+01  0.3833E+03
     23.653  0.1458E+01  0.3837E+03
     23.805  0.1757E+01  0.3841E+03
     23.957  0.1380E+01  0.3845E+03
     24.109  0.1640E+01  0.3850E+03
     24.261  0.8314E+00  0.3852E+03
     24.413  0.5550E+00  0.3854E+03
     24.565  0.9135E+00  0.3855E+03
     24.717  0.6886E+00  0.3857E+03
     24.869  0.2794E+00  0.3858E+03
     25.021  0.3392E+00  0.3859E+03
     25.174  0.0000E+00  0.3859E+03
     25.326  0.1912E+00  0.3859E+03
     25.478  0.0000E+00  0.3860E+03
     25.630  0.1101E-01  0.3860E+03
     25.782  0.0000E+00  0.3880E+03
     25.934  0.0000E+00  0.3880E+03
     26.086  0.0000E+00  0.3880E+03
     26.238  0.0000E+00  0.3880E+03
     26.390  0.0000E+00  0.3880E+03
     26.542  0.0000E+00  0.3880E+03
     26.694  0.0000E+00  0.3880E+03
     26.846  0.0000E+00  0.3880E+03
     26.998  0.0000E+00  0.3880E+03
     27.150  0.0000E+00  0.3880E+03
     27.302  0.0000E+00  0.3880E+03
     27.454  0.0000E+00  0.3880E+03
     27.606  0.0000E+00  0.3880E+03
     27.758  0.0000E+00  0.3880E+03
     27.78837276    -17.87709411  301      3.66178443      1.00000000
    -17.877  0.0000E+00  0.0000E+00
    -17.725  0.0000E+00  0.0000E+00
    -17.573  0.0000E+00  0.0000E+00
    -17.420  0.0000E+00  0.0000E+00
    -17.268  0.0000E+00  0.0000E+00
    -17.116  0.0000E+00  0.0000E+00
    -16.964  0.0000E+00  0.0000E+00
    -16.812  0.0000E+00  0.0000E+00
    -16.659  0.0000E+00  0.0000E+00
    -16.507  0.0000E+00  0.0000E+00
    -16.355  0.0000E+00  0.0000E+00
    -16.203  0.0000E+00  0.0000E+00
    -16.050  0.0000E+00  0.0000E+00
    -15.898  0.0000E+00  0.0000E+00
    -15.746  0.2628E+00  0.4000E-01
    -15.594  0.0000E+00  0.4000E-01
    -15.442  0.0000E+00  0.4000E-01
    -15.289  0.0000E+00  0.4000E-01
    -15.137  0.0000E+00  0.4000E-01
    -14.985  0.0000E+00  0.4000E-01
    -14.833  0.0000E+00  0.4000E-01
    -14.681  0.1328E-01  0.4202E-01
    -14.528  0.0000E+00  0.1200E+00
    -14.376  0.0000E+00  0.1200E+00
    -14.224  0.0000E+00  0.1200E+00
    -14.072  0.0000E+00  0.1200E+00
    -13.919  0.0000E+00  0.1200E+00
    -13.767  0.0000E+00  0.1200E+00
    -13.615  0.0000E+00  0.1200E+00
    -13.463  0.0000E+00  0.1200E+00
    -13.311  0.0000E+00  0.1200E+00
    -13.158  0.0000E+00  0.1200E+00
    -13.006  0.0000E+00  0.1200E+00
    -12.854  0.0000E+00  0.1200E+00
    -12.702  0.0000E+00  0.1200E+00
    -12.549  0.0000E+00  0.1200E+00
    -12.397  0.0000E+00  0.1200E+00
    -12.245  0.0000E+00  0.1200E+00
    -12.093  0.0000E+00  0.1200E+00
    -11.941  0.0000E+00  0.1200E+00
    -11.788  0.0000E+00  0.1200E+00
    -11.636  0.0000E+00  0.1200E+00
    -11.484  0.0000E+00  0.1200E+00
    -11.332  0.3505E-11  0.1200E+00
    -11.179  0.0000E+00  0.2000E+00
    -11.027  0.1104E-02  0.2002E+00
    -10.875  0.0000E+00  0.3200E+00
    -10.723  0.7880E+00  0.4399E+00
    -10.571  0.0000E+00  0.4400E+00
    -10.418  0.0000E+00  0.4400E+00
    -10.266  0.0000E+00  0.4400E+00
    -10.114  0.0000E+00  0.4400E+00
     -9.962  0.0000E+00  0.5200E+00
     -9.810  0.5277E+00  0.6003E+00
     -9.657  0.5256E+00  0.7600E+00
     -9.505  0.5256E+00  0.8400E+00
     -9.353  0.5256E+00  0.9200E+00
     -9.201  0.0000E+00  0.9200E+00
     -9.048  0.0000E+00  0.9200E+00
     -8.896  0.0000E+00  0.9200E+00
     -8.744  0.0000E+00  0.9200E+00
     -8.592  0.0000E+00  0.9200E+00
     -8.440  0.0000E+00  0.9200E+00
     -8.287  0.0000E+00  0.9200E+00
     -8.135  0.0000E+00  0.9200E+00
     -7.983  0.0000E+00  0.9200E+00
     -7.831  0.0000E+00  0.9200E+00
     -7.678  0.0000E+00  0.9200E+00
     -7.526  0.0000E+00  0.9200E+00
     -7.374  0.0000E+00  0.9200E+00
     -7.222  0.0000E+00  0.9200E+00
     -7.070  0.0000E+00  0.9200E+00
     -6.917  0.0000E+00  0.9200E+00
     -6.765  0.0000E+00  0.9200E+00
     -6.613  0.5450E+00  0.1003E+01
     -6.461  0.4844E+00  0.1194E+01
     -6.309  0.1314E+01  0.1400E+01
     -6.156  0.0000E+00  0.1400E+01
     -6.004  0.5256E+00  0.1480E+01
     -5.852  0.0000E+00  0.1480E+01
     -5.700  0.0000E+00  0.1480E+01
     -5.547  0.0000E+00  0.1480E+01
     -5.395  0.0000E+00  0.1480E+01
     -5.243  0.0000E+00  0.1480E+01
     -5.091  0.0000E+00  0.1480E+01
     -4.939  0.0000E+00  0.1480E+01
     -4.786  0.0000E+00  0.1480E+01
     -4.634  0.0000E+00  0.1480E+01
     -4.482  0.0000E+00  0.1480E+01
     -4.330  0.0000E+00  0.1480E+01
     -4.177  0.0000E+00  0.1480E+01
     -4.025  0.0000E+00  0.1480E+01
     -3.873  0.0000E+00  0.1480E+01
     -3.721  0.0000E+00  0.1480E+01
     -3.569  0.0000E+00  0.1480E+01
     -3.416  0.0000E+00  0.1480E+01
     -3.264  0.0000E+00  0.1480E+01
     -3.112  0.0000E+00  0.1480E+01
     -2.960  0.0000E+00  0.1480E+01
     -2.807  0.1589E-01  0.1482E+01
     -2.655  0.0000E+00  0.1560E+01
     -2.503  0.0000E+00  0.1560E+01
     -2.351  0.5256E+00  0.1640E+01
     -2.199  0.3001E-04  0.1640E+01
     -2.046  0.0000E+00  0.1760E+01
     -1.894  0.0000E+00  0.1760E+01
     -1.742  0.6522E+00  0.1859E+01
     -1.590  0.0000E+00  0.1880E+01
     -1.438  0.7186E-03  0.1880E+01
     -1.285  0.5256E+00  0.2120E+01
     -1.133  0.0000E+00  0.2120E+01
     -0.981  0.0000E+00  0.2120E+01
     -0.829  0.0000E+00  0.2120E+01
     -0.676  0.6203E+00  0.2214E+01
     -0.524  0.0000E+00  0.2320E+01
     -0.372  0.0000E+00  0.2320E+01
     -0.220  0.5256E+00  0.2400E+01
     -0.068  0.4966E-03  0.2400E+01
      0.085  0.4023E-02  0.2561E+01
      0.237  0.0000E+00  0.2640E+01
      0.389  0.5256E+00  0.2760E+01
      0.541  0.7761E+00  0.2878E+01
      0.694  0.2628E+00  0.2960E+01
      0.846  0.0000E+00  0.2960E+01
      0.998  0.0000E+00  0.2960E+01
      1.150  0.0000E+00  0.2960E+01
      1.302  0.0000E+00  0.2960E+01
      1.455  0.0000E+00  0.2960E+01
      1.607  0.0000E+00  0.3000E+01
      1.759  0.2628E+00  0.3040E+01
      1.911  0.1158E+01  0.3216E+01
      2.063  0.5256E+00  0.3360E+01
      2.216  0.5256E+00  0.3440E+01
      2.368  0.8947E-10  0.3520E+01
      2.520  0.9276E-11  0.3600E+01
      2.672  0.0000E+00  0.3640E+01
      2.825  0.2628E+00  0.3680E+01
      2.977  0.4528E+00  0.3749E+01
      3.129  0.2586E+00  0.3799E+01
      3.281  0.0000E+00  0.3800E+01
      3.433  0.0000E+00  0.3800E+01
      3.586  0.8599E-04  0.3800E+01
      3.738  0.0000E+00  0.3840E+01
      3.890  0.0000E+00  0.3840E+01
      4.042  0.0000E+00  0.3840E+01
      4.195  0.0000E+00  0.3840E+01
      4.347  0.0000E+00  0.3840E+01
      4.499  0.0000E+00  0.3840E+01
      4.651  0.0000E+00  0.3840E+01
      4.803  0.0000E+00  0.3840E+01
      4.956  0.0000E+00  0.3840E+01
      5.108  0.0000E+00  0.3840E+01
      5.260  0.0000E+00  0.3840E+01
      5.412  0.0000E+00  0.3840E+01
      5.565  0.0000E+00  0.3840E+01
      5.717  0.0000E+00  0.3840E+01
      5.869  0.0000E+00  0.3840E+01
      6.021  0.0000E+00  0.3840E+01
      6.173  0.0000E+00  0.3840E+01
      6.326  0.0000E+00  0.3840E+01
      6.478  0.0000E+00  0.3840E+01
      6.630  0.0000E+00  0.3840E+01
      6.782  0.0000E+00  0.3840E+01
      6.934  0.0000E+00  0.3840E+01
      7.087  0.0000E+00  0.3840E+01
      7.239  0.2628E+00  0.3880E+01
      7.391  0.0000E+00  0.3880E+01
      7.543  0.0000E+00  0.3880E+01
      7.696  0.7883E+00  0.4000E+01
      7.848  0.4291E-07  0.4000E+01
      8.000  0.0000E+00  0.4040E+01
      8.152  0.0000E+00  0.4040E+01
      8.304  0.5256E+00  0.4120E+01
      8.457  0.5256E+00  0.4200E+01
      8.609  0.7878E+00  0.4320E+01
      8.761  0.0000E+00  0.4320E+01
      8.913  0.0000E+00  0.4320E+01
      9.066  0.0000E+00  0.4320E+01
      9.218  0.0000E+00  0.4320E+01
      9.370  0.5162E+00  0.4399E+01
      9.522  0.0000E+00  0.4400E+01
      9.674  0.7863E-13  0.4400E+01
      9.827  0.0000E+00  0.4480E+01
      9.979  0.0000E+00  0.4480E+01
     10.131  0.0000E+00  0.4480E+01
     10.283  0.5226E+00  0.4560E+01
     10.435  0.0000E+00  0.4560E+01
     10.588  0.0000E+00  0.4560E+01
     10.740  0.0000E+00  0.4560E+01
     10.892  0.9250E-12  0.4560E+01
     11.044  0.1030E-01  0.4602E+01
     11.197  0.1182E-03  0.4680E+01
     11.349  0.4912E+00  0.4835E+01
     11.501  0.0000E+00  0.4960E+01
     11.653  0.0000E+00  0.4960E+01
     11.805  0.0000E+00  0.4960E+01
     11.958  0.0000E+00  0.4960E+01
     12.110  0.0000E+00  0.5000E+01
     12.262  0.0000E+00  0.5000E+01
     12.414  0.2110E-04  0.5000E+01
     12.567  0.0000E+00  0.5080E+01
     12.719  0.0000E+00  0.5080E+01
     12.871  0.0000E+00  0.5080E+01
     13.023  0.3440E+00  0.5132E+01
     13.175  0.0000E+00  0.5160E+01
     13.328  0.0000E+00  0.5160E+01
     13.480  0.0000E+00  0.5160E+01
     13.632  0.2626E+00  0.5200E+01
     13.784  0.5256E+00  0.5280E+01
     13.937  0.2628E+00  0.5320E+01
     14.089  0.0000E+00  0.5320E+01
     14.241  0.0000E+00  0.5320E+01
     14.393  0.0000E+00  0.5320E+01
     14.545  0.0000E+00  0.5320E+01
     14.698  0.5256E+00  0.5400E+01
     14.850  0.0000E+00  0.5400E+01
     15.002  0.5256E+00  0.5560E+01
     15.154  0.9933E+00  0.5711E+01
     15.306  0.1348E-13  0.5760E+01
     15.459  0.0000E+00  0.5840E+01
     15.611  0.0000E+00  0.5840E+01
     15.763  0.2573E+00  0.5879E+01
     15.915  0.0000E+00  0.5880E+01
     16.068  0.0000E+00  0.5880E+01
     16.220  0.0000E+00  0.5880E+01
     16.372  0.0000E+00  0.5880E+01
     16.524  0.5256E+00  0.5960E+01
     16.676  0.0000E+00  0.6040E+01
     16.829  0.0000E+00  0.6040E+01
     16.981  0.0000E+00  0.6040E+01
     17.133  0.5256E+00  0.6120E+01
     17.285  0.0000E+00  0.6120E+01
     17.438  0.0000E+00  0.6120E+01
     17.590  0.0000E+00  0.6120E+01
     17.742  0.0000E+00  0.6120E+01
     17.894  0.0000E+00  0.6120E+01
     18.046  0.0000E+00  0.6120E+01
     18.199  0.3782E+00  0.6178E+01
     18.351  0.1662E-01  0.6203E+01
     18.503  0.1935E-10  0.6240E+01
     18.655  0.2806E-01  0.6324E+01
     18.807  0.0000E+00  0.6600E+01
     18.960  0.1049E+01  0.6760E+01
     19.112  0.9736E+00  0.6988E+01
     19.264  0.0000E+00  0.7000E+01
     19.416  0.2638E-04  0.7000E+01
     19.569  0.0000E+00  0.7040E+01
     19.721  0.9991E-01  0.7055E+01
     19.873  0.0000E+00  0.7080E+01
     20.025  0.0000E+00  0.7080E+01
     20.177  0.0000E+00  0.7080E+01
     20.330  0.5539E-02  0.7121E+01
     20.482  0.9347E-06  0.7160E+01
     20.634  0.2628E+00  0.7240E+01
     20.786  0.0000E+00  0.7240E+01
     20.939  0.0000E+00  0.7240E+01
     21.091  0.2622E+00  0.7280E+01
     21.243  0.2628E+00  0.7320E+01
     21.395  0.0000E+00  0.7320E+01
     21.547  0.1459E-16  0.7320E+01
     21.700  0.0000E+00  0.7360E+01
     21.852  0.2628E+00  0.7400E+01
     22.004  0.2628E+00  0.7480E+01
     22.156  0.2628E+00  0.7520E+01
     22.309  0.0000E+00  0.7560E+01
     22.461  0.2623E+00  0.7600E+01
     22.613  0.2720E-05  0.7600E+01
     22.765  0.2628E+00  0.7680E+01
     22.917  0.0000E+00  0.7680E+01
     23.070  0.0000E+00  0.7680E+01
     23.222  0.2628E+00  0.7720E+01
     23.374  0.0000E+00  0.7720E+01
     23.526  0.0000E+00  0.7720E+01
     23.678  0.0000E+00  0.7720E+01
     23.831  0.0000E+00  0.7720E+01
     23.983  0.0000E+00  0.7720E+01
     24.135  0.0000E+00  0.7720E+01
     24.287  0.0000E+00  0.7720E+01
     24.440  0.0000E+00  0.7720E+01
     24.592  0.0000E+00  0.7720E+01
     24.744  0.0000E+00  0.7720E+01
     24.896  0.0000E+00  0.7720E+01
     25.048  0.0000E+00  0.7720E+01
     25.201  0.0000E+00  0.7720E+01
     25.353  0.0000E+00  0.7720E+01
     25.505  0.0000E+00  0.7720E+01
     25.657  0.6564E-15  0.7720E+01
     25.810  0.0000E+00  0.7760E+01
     25.962  0.0000E+00  0.7760E+01
     26.114  0.0000E+00  0.7760E+01
     26.266  0.0000E+00  0.7760E+01
     26.418  0.0000E+00  0.7760E+01
     26.571  0.0000E+00  0.7760E+01
     26.723  0.0000E+00  0.7760E+01
     26.875  0.0000E+00  0.7760E+01
     27.027  0.0000E+00  0.7760E+01
     27.179  0.0000E+00  0.7760E+01
     27.332  0.0000E+00  0.7760E+01
     27.484  0.0000E+00  0.7760E+01
     27.636  0.0000E+00  0.7760E+01
     27.788  0.0000E+00  0.7760E+01
