  192  192   50    1
  0.1939796E+01  0.6223215E-09  0.6223209E-09  0.1109719E-08  0.1000000E-14
   0.0000000000000000     
  CAR 
 unknown system                          
    192      1    194

  0.1262379E-14  0.1262379E-14  0.1262379E-14  0.1000000E+01
    1      -15.801391   1.000000
    2      -14.666727   1.000000
    3      -14.666641   1.000000
    4      -11.284590   1.000000
    5      -11.266013   1.000000
    6      -11.007168   1.000000
    7      -11.006890   1.000000
    8      -10.964724   1.000000
    9      -10.762180   1.000000
   10      -10.745729   1.000000
   11      -10.745462   1.000000
   12      -10.046288   1.000000
   13      -10.045962   1.000000
   14       -9.889466   1.000000
   15       -9.889415   1.000000
   16       -9.791002   1.000000
   17       -9.790645   1.000000
   18       -9.716132   1.000000
   19       -9.715953   1.000000
   20       -9.581686   1.000000
   21       -9.581578   1.000000
   22       -9.428030   1.000000
   23       -9.427914   1.000000
   24       -6.646618   1.000000
   25       -6.646529   1.000000
   26       -6.600161   1.000000
   27       -6.599868   1.000000
   28       -6.595310   1.000000
   29       -6.483802   1.000000
   30       -6.467870   1.000000
   31       -6.381463   1.000000
   32       -6.349133   1.000000
   33       -6.349005   1.000000
   34       -6.343155   1.000000
   35       -6.342996   1.000000
   36       -6.033151   1.000000
   37       -6.033127   1.000000
   38       -2.794284   1.000000
   39       -2.794144   1.000000
   40       -2.416681   1.000000
   41       -2.416545   1.000000
   42       -2.172558   1.000000
   43       -2.148188   1.000000
   44       -2.148097   1.000000
   45       -1.816841   1.000000
   46       -1.816611   1.000000
   47       -1.741642   1.000000
   48       -1.416427   1.000000
   49       -1.416251   1.000000
   50       -1.390315   1.000000
   51       -1.390252   1.000000
   52       -1.317437   1.000000
   53       -1.317184   1.000000
   54       -0.718717   1.000000
   55       -0.718486   1.000000
   56       -0.673906   1.000000
   57       -0.646637   1.000000
   58       -0.646542   1.000000
   59       -0.263619   1.000000
   60       -0.263487   1.000000
   61       -0.045684   1.000000
   62       -0.045496   1.000000
   63       -0.001842   1.000000
   64       -0.001679   1.000000
   65        0.101679   1.000000
   66        0.101933   1.000000
   67        0.298066   1.000000
   68        0.315429   1.000000
   69        0.315465   1.000000
   70        0.503960   1.000000
   71        0.504134   1.000000
   72        0.541652   1.000000
   73        0.541798   1.000000
   74        0.655901   1.000000
   75        1.526403   1.000000
   76        1.683748   1.000000
   77        1.835679   1.000000
   78        1.836281   1.000000
   79        1.836342   1.000000
   80        1.899134   1.000000
   81        1.912179   1.000000
   82        1.981915   1.000000
   83        2.000028   1.000000
   84        2.000163   1.000000
   85        2.154313   1.000000
   86        2.154532   1.000000
   87        2.267286   1.000000
   88        2.267332   1.000000
   89        2.412287   1.000000
   90        2.412374   1.000000
   91        2.566247   1.000000
   92        2.753967   1.000000
   93        2.968964   1.000000
   94        2.969256   1.000000
   95        3.113856   1.000000
   96        3.609773   1.000000
   97        7.207807   0.000000
   98        7.644055   0.000000
   99        7.644398   0.000000
  100        7.651663   0.000000
  101        7.883900   0.000000
  102        8.229877   0.000000
  103        8.230357   0.000000
  104        8.396228   0.000000
  105        8.396373   0.000000
  106        8.548500   0.000000
  107        8.549158   0.000000
  108        8.588654   0.000000
  109        9.354915   0.000000
  110        9.355267   0.000000
  111        9.725953   0.000000
  112        9.726020   0.000000
  113       10.264959   0.000000
  114       10.265767   0.000000
  115       10.940635   0.000000
  116       11.058812   0.000000
  117       11.059091   0.000000
  118       11.220064   0.000000
  119       11.243223   0.000000
  120       11.275262   0.000000
  121       11.349753   0.000000
  122       11.350198   0.000000
  123       11.372656   0.000000
  124       11.372984   0.000000
  125       12.025828   0.000000
  126       12.441020   0.000000
  127       12.458522   0.000000
  128       13.020268   0.000000
  129       13.020518   0.000000
  130       13.608921   0.000000
  131       13.749240   0.000000
  132       13.749841   0.000000
  133       13.888377   0.000000
  134       14.645584   0.000000
  135       14.645689   0.000000
  136       14.912897   0.000000
  137       14.913132   0.000000
  138       14.958060   0.000000
  139       14.958091   0.000000
  140       15.081225   0.000000
  141       15.140613   0.000000
  142       15.145008   0.000000
  143       15.145105   0.000000
  144       15.200205   0.000000
  145       15.359588   0.000000
  146       15.359857   0.000000
  147       15.748739   0.000000
  148       16.448617   0.000000
  149       16.449779   0.000000
  150       16.556868   0.000000
  151       16.557135   0.000000
  152       17.098142   0.000000
  153       17.098497   0.000000
  154       18.194253   0.000000
  155       18.194763   0.000000
  156       18.361649   0.000000
  157       18.548772   0.000000
  158       18.549621   0.000000
  159       18.664075   0.000000
  160       18.698328   0.000000
  161       18.698671   0.000000
  162       18.705353   0.000000
  163       18.706756   0.000000
  164       18.724897   0.000000
  165       18.725452   0.000000
  166       18.896562   0.000000
  167       18.897738   0.000000
  168       18.938813   0.000000
  169       18.941589   0.000000
  170       19.018001   0.000000
  171       19.018579   0.000000
  172       19.066621   0.000000
  173       19.067579   0.000000
  174       19.104110   0.000000
  175       19.104923   0.000000
  176       19.442661   0.000000
  177       19.722963   0.000000
  178       20.245327   0.000000
  179       20.344048   0.000000
  180       20.513649   0.000000
  181       20.588678   0.000000
  182       21.070672   0.000000
  183       21.201287   0.000000
  184       21.605945   0.000000
  185       21.774400   0.000000
  186       21.883037   0.000000
  187       21.945969   0.000000
  188       22.109464   0.000000
  189       22.212645   0.000000
  190       22.440029   0.000000
  191       22.643056   0.000000
  192       22.729728   0.000000
  193       23.165080   0.000000
  194       25.712670   0.000000
