       N       E                     dE             d eps       ncg     rms          rms(c)
RMM:   1     0.125557378091E+04    0.12556E+04   -0.43984E+04   194   0.479E+02
RMM:   2     0.156334970306E+03   -0.10992E+04   -0.97284E+03   194   0.127E+02
RMM:   3    -0.238535837614E+03   -0.39487E+03   -0.33475E+03   194   0.686E+01
RMM:   4    -0.402680291432E+03   -0.16414E+03   -0.85646E+02   194   0.381E+01
RMM:   5    -0.437254203332E+03   -0.34574E+02   -0.13613E+02   194   0.132E+01
RMM:   6    -0.440084625343E+03   -0.28304E+01   -0.15893E+01   194   0.432E+00
RMM:   7    -0.440333046888E+03   -0.24842E+00   -0.18265E+00   194   0.127E+00
RMM:   8    -0.440360250938E+03   -0.27204E-01   -0.21547E-01   194   0.425E-01
RMM:   9    -0.440363183224E+03   -0.29323E-02   -0.25978E-02   330   0.138E-01
RMM:  10    -0.440363592106E+03   -0.40888E-03   -0.38459E-03   302   0.454E-02
RMM:  11    -0.440363636301E+03   -0.44195E-04   -0.38284E-04   253   0.152E-02
RMM:  12    -0.440363642390E+03   -0.60885E-05   -0.58688E-05   230   0.594E-03    0.426E+01
RMM:  13    -0.433948973244E+03    0.64147E+01   -0.13038E+00   388   0.199E+00    0.254E+01
RMM:  14    -0.430881852090E+03    0.30671E+01   -0.33891E+00   388   0.387E+00    0.118E+00
RMM:  15    -0.430867392962E+03    0.14459E-01   -0.14429E-01   388   0.844E-01    0.294E-01
RMM:  16    -0.430869563630E+03   -0.21707E-02   -0.61248E-03   388   0.195E-01    0.169E-01
RMM:  17    -0.430869997647E+03   -0.43402E-03   -0.81184E-04   388   0.687E-02    0.309E-02
RMM:  18    -0.430869998325E+03   -0.67751E-06   -0.42278E-05   282   0.115E-02
    1 T=     1. E= -.43083364E+03 F= -.43087000E+03 E0= -.43087000E+03  EK= 0.36358E-01 SP= 0.00E+00 SK= 0.00E+00
       N       E                     dE             d eps       ncg     rms          rms(c)
RMM:   1    -0.431088587633E+03   -0.21859E+00   -0.14745E+00   388   0.264E+00    0.640E-01
RMM:   2    -0.431088074668E+03    0.51297E-03   -0.23733E-02   388   0.391E-01    0.405E-01
RMM:   3    -0.431086660569E+03    0.14141E-02   -0.11313E-03   388   0.719E-02    0.231E-02
RMM:   4    -0.431086650284E+03    0.10285E-04   -0.52192E-05   274   0.131E-02
    2 T=     9. E= -.43086177E+03 F= -.43108665E+03 E0= -.43108665E+03  EK= 0.22488E+00 SP= 0.00E+00 SK= 0.00E+00
       N       E                     dE             d eps       ncg     rms          rms(c)
RMM:   1    -0.431130529676E+03   -0.43869E-01   -0.32481E-01   388   0.127E+00    0.567E-02
RMM:   2    -0.431131046329E+03   -0.51665E-03   -0.48274E-03   388   0.183E-01    0.311E-02
RMM:   3    -0.431131058805E+03   -0.12476E-04   -0.23914E-04   303   0.324E-02
    3 T=    11. E= -.43086628E+03 F= -.43113106E+03 E0= -.43113106E+03  EK= 0.26478E+00 SP= 0.00E+00 SK= 0.00E+00
       N       E                     dE             d eps       ncg     rms          rms(c)
RMM:   1    -0.430962979948E+03    0.16807E+00   -0.52431E-02   388   0.281E-01    0.383E-02
RMM:   2    -0.430963263251E+03   -0.28330E-03   -0.24537E-03   365   0.906E-02    0.226E-02
RMM:   3    -0.430963279920E+03   -0.16669E-04   -0.13370E-04   292   0.178E-02
    4 T=     5. E= -.43083390E+03 F= -.43096328E+03 E0= -.43096328E+03  EK= 0.12938E+00 SP= 0.00E+00 SK= 0.00E+00
       N       E                     dE             d eps       ncg     rms          rms(c)
RMM:   1    -0.431019506897E+03   -0.56244E-01   -0.36419E-02   388   0.261E-01    0.700E-02
RMM:   2    -0.431019722009E+03   -0.21511E-03   -0.18949E-03   371   0.835E-02    0.428E-02
RMM:   3    -0.431019734192E+03   -0.12183E-04   -0.11817E-04   290   0.176E-02
    5 T=     7. E= -.43083596E+03 F= -.43101973E+03 E0= -.43101973E+03  EK= 0.18378E+00 SP= 0.00E+00 SK= 0.00E+00
       N       E                     dE             d eps       ncg     rms          rms(c)
RMM:   1    -0.431271467602E+03   -0.25175E+00   -0.37427E-02   388   0.238E-01    0.250E-02
RMM:   2    -0.431271680394E+03   -0.21279E-03   -0.19062E-03   365   0.802E-02    0.182E-02
RMM:   3    -0.431271691987E+03   -0.11593E-04   -0.11839E-04   283   0.153E-02
    6 T=    16. E= -.43086930E+03 F= -.43127169E+03 E0= -.43127169E+03  EK= 0.40239E+00 SP= 0.00E+00 SK= 0.00E+00
       N       E                     dE             d eps       ncg     rms          rms(c)
RMM:   1    -0.431269281246E+03    0.23991E-02   -0.37535E-02   388   0.268E-01    0.432E-02
RMM:   2    -0.431269481715E+03   -0.20047E-03   -0.18005E-03   361   0.747E-02    0.268E-02
RMM:   3    -0.431269494168E+03   -0.12452E-04   -0.12307E-04   290   0.148E-02
    7 T=    16. E= -.43086278E+03 F= -.43126949E+03 E0= -.43126949E+03  EK= 0.40672E+00 SP= 0.00E+00 SK= 0.00E+00
       N       E                     dE             d eps       ncg     rms          rms(c)
RMM:   1    -0.431084517257E+03    0.18496E+00   -0.22387E-01   388   0.784E-01    0.121E-01
RMM:   2    -0.431085555576E+03   -0.10383E-02   -0.99993E-03   388   0.189E-01    0.727E-02
RMM:   3    -0.431085615416E+03   -0.59839E-04   -0.70917E-04   344   0.384E-02
    8 T=    10. E= -.43083448E+03 F= -.43108562E+03 E0= -.43108562E+03  EK= 0.25114E+00 SP= 0.00E+00 SK= 0.00E+00
       N       E                     dE             d eps       ncg     rms          rms(c)
RMM:   1    -0.431111520695E+03   -0.25965E-01   -0.71728E-02   388   0.393E-01    0.661E-02
RMM:   2    -0.431111897260E+03   -0.37656E-03   -0.36514E-03   386   0.111E-01    0.427E-02
RMM:   3    -0.431111903080E+03   -0.58197E-05   -0.24937E-04   307   0.223E-02
    9 T=    11. E= -.43083807E+03 F= -.43111190E+03 E0= -.43111190E+03  EK= 0.27383E+00 SP= 0.00E+00 SK= 0.00E+00
       N       E                     dE             d eps       ncg     rms          rms(c)
RMM:   1    -0.431296920887E+03   -0.18502E+00   -0.29789E-02   388   0.249E-01    0.371E-02
RMM:   2    -0.431297113393E+03   -0.19251E-03   -0.15233E-03   367   0.744E-02    0.295E-02
RMM:   3    -0.431297125789E+03   -0.12397E-04   -0.84156E-05   287   0.145E-02
   10 T=    17. E= -.43086767E+03 F= -.43129713E+03 E0= -.43129713E+03  EK= 0.42945E+00 SP= 0.00E+00 SK= 0.00E+00
       N       E                     dE             d eps       ncg     rms          rms(c)
RMM:   1    -0.431238341617E+03    0.58772E-01   -0.32038E-02   388   0.281E-01    0.423E-02
RMM:   2    -0.431238522731E+03   -0.18111E-03   -0.15440E-03   365   0.755E-02    0.269E-02
RMM:   3    -0.431238530441E+03   -0.77104E-05   -0.87225E-05   280   0.145E-02
   11 T=    15. E= -.43086493E+03 F= -.43123853E+03 E0= -.43123853E+03  EK= 0.37360E+00 SP= 0.00E+00 SK= 0.00E+00
       N       E                     dE             d eps       ncg     rms          rms(c)
RMM:   1    -0.430994892740E+03    0.24363E+00   -0.80571E-02   388   0.581E-01    0.833E-02
RMM:   2    -0.430995164569E+03   -0.27183E-03   -0.26689E-03   388   0.113E-01    0.546E-02
RMM:   3    -0.430995163489E+03    0.10800E-05   -0.16298E-04   297   0.229E-02
   12 T=     7. E= -.43082995E+03 F= -.43099516E+03 E0= -.43099516E+03  EK= 0.16522E+00 SP= 0.00E+00 SK= 0.00E+00
       N       E                     dE             d eps       ncg     rms          rms(c)
RMM:   1    -0.431032038361E+03   -0.36874E-01   -0.15678E-01   388   0.654E-01    0.110E-01
RMM:   2    -0.431032747733E+03   -0.70937E-03   -0.70146E-03   388   0.164E-01    0.673E-02
RMM:   3    -0.431032758173E+03   -0.10441E-04   -0.42038E-04   332   0.319E-02
   13 T=     8. E= -.43084101E+03 F= -.43103276E+03 E0= -.43103276E+03  EK= 0.19175E+00 SP= 0.00E+00 SK= 0.00E+00
       N       E                     dE             d eps       ncg     rms          rms(c)
RMM:   1    -0.431208716128E+03   -0.17597E+00   -0.39737E-02   388   0.292E-01    0.494E-02
RMM:   2    -0.431208908734E+03   -0.19261E-03   -0.18482E-03   371   0.801E-02    0.335E-02
RMM:   3    -0.431208916564E+03   -0.78304E-05   -0.12889E-04   289   0.162E-02
   14 T=    14. E= -.43087153E+03 F= -.43120892E+03 E0= -.43120892E+03  EK= 0.33739E+00 SP= 0.00E+00 SK= 0.00E+00
       N       E                     dE             d eps       ncg     rms          rms(c)
RMM:   1    -0.431108978284E+03    0.99930E-01   -0.52355E-02   388   0.412E-01    0.699E-02
RMM:   2    -0.431109145900E+03   -0.16762E-03   -0.19622E-03   386   0.844E-02    0.406E-02
RMM:   3    -0.431109146719E+03   -0.81914E-06   -0.15001E-04   282   0.178E-02
   15 T=    10. E= -.43085529E+03 F= -.43110915E+03 E0= -.43110915E+03  EK= 0.25385E+00 SP= 0.00E+00 SK= 0.00E+00
       N       E                     dE             d eps       ncg     rms          rms(c)
RMM:   1    -0.430937452312E+03    0.17169E+00   -0.12385E-01   388   0.816E-01    0.963E-02
RMM:   2    -0.430937606044E+03   -0.15373E-03   -0.21257E-03   388   0.115E-01    0.589E-02
RMM:   3    -0.430937601208E+03    0.48355E-05   -0.13089E-04   288   0.236E-02
   16 T=     4. E= -.43082961E+03 F= -.43093760E+03 E0= -.43093760E+03  EK= 0.10800E+00 SP= 0.00E+00 SK= 0.00E+00
       N       E                     dE             d eps       ncg     rms          rms(c)
RMM:   1    -0.431052155384E+03   -0.11455E+00   -0.42424E-02   388   0.371E-01    0.740E-02
RMM:   2    -0.431052288116E+03   -0.13273E-03   -0.15286E-03   373   0.783E-02    0.464E-02
RMM:   3    -0.431052282499E+03    0.56166E-05   -0.12033E-04   283   0.174E-02
   17 T=     9. E= -.43084239E+03 F= -.43105228E+03 E0= -.43105228E+03  EK= 0.20989E+00 SP= 0.00E+00 SK= 0.00E+00
       N       E                     dE             d eps       ncg     rms          rms(c)
RMM:   1    -0.431273460446E+03   -0.22117E+00   -0.32290E-02   388   0.241E-01    0.375E-02
RMM:   2    -0.431273630316E+03   -0.16987E-03   -0.15486E-03   352   0.688E-02    0.239E-02
RMM:   3    -0.431273638609E+03   -0.82927E-05   -0.10011E-04   284   0.133E-02
   18 T=    16. E= -.43087070E+03 F= -.43127364E+03 E0= -.43127364E+03  EK= 0.40294E+00 SP= 0.00E+00 SK= 0.00E+00
       N       E                     dE             d eps       ncg     rms          rms(c)
RMM:   1    -0.431218246506E+03    0.55384E-01   -0.49743E-02   388   0.385E-01    0.788E-02
RMM:   2    -0.431218421172E+03   -0.17467E-03   -0.20325E-03   386   0.870E-02    0.482E-02
RMM:   3    -0.431218421192E+03   -0.20104E-07   -0.14194E-04   290   0.182E-02
   19 T=    15. E= -.43085814E+03 F= -.43121842E+03 E0= -.43121842E+03  EK= 0.36028E+00 SP= 0.00E+00 SK= 0.00E+00
       N       E                     dE             d eps       ncg     rms          rms(c)
RMM:   1    -0.431071669302E+03    0.14675E+00   -0.26178E-01   388   0.116E+00    0.217E-01
RMM:   2    -0.431071819538E+03   -0.15024E-03   -0.44289E-03   388   0.170E-01    0.138E-01
RMM:   3    -0.431071660574E+03    0.15896E-03   -0.24565E-04   308   0.340E-02    0.117E-02
RMM:   4    -0.431071659127E+03    0.14472E-05   -0.13409E-05   256   0.673E-03
   20 T=    10. E= -.43082892E+03 F= -.43107166E+03 E0= -.43107166E+03  EK= 0.24274E+00 SP= 0.00E+00 SK= 0.00E+00
       N       E                     dE             d eps       ncg     rms          rms(c)
RMM:   1    -0.431219053019E+03   -0.14739E+00   -0.58326E-02   388   0.436E-01    0.949E-02
RMM:   2    -0.431219245894E+03   -0.19288E-03   -0.22296E-03   385   0.987E-02    0.597E-02
RMM:   3    -0.431219247400E+03   -0.15060E-05   -0.16744E-04   299   0.215E-02
   21 T=    15. E= -.43085019E+03 F= -.43121925E+03 E0= -.43121925E+03  EK= 0.36906E+00 SP= 0.00E+00 SK= 0.00E+00
       N       E                     dE             d eps       ncg     rms          rms(c)
RMM:   1    -0.431383875337E+03   -0.16463E+00   -0.73070E-02   388   0.368E-01    0.649E-02
RMM:   2    -0.431384242134E+03   -0.36680E-03   -0.34536E-03   375   0.102E-01    0.401E-02
RMM:   3    -0.431384261717E+03   -0.19583E-04   -0.22095E-04   292   0.201E-02
   22 T=    21. E= -.43087314E+03 F= -.43138426E+03 E0= -.43138426E+03  EK= 0.51112E+00 SP= 0.00E+00 SK= 0.00E+00
       N       E                     dE             d eps       ncg     rms          rms(c)
RMM:   1    -0.431243654084E+03    0.14059E+00   -0.65723E-02   388   0.445E-01    0.767E-02
RMM:   2    -0.431243923093E+03   -0.26901E-03   -0.27152E-03   382   0.101E-01    0.462E-02
RMM:   3    -0.431243930511E+03   -0.74181E-05   -0.17821E-04   288   0.202E-02
   23 T=    16. E= -.43085217E+03 F= -.43124393E+03 E0= -.43124393E+03  EK= 0.39176E+00 SP= 0.00E+00 SK= 0.00E+00
       N       E                     dE             d eps       ncg     rms          rms(c)
RMM:   1    -0.431073428927E+03    0.17049E+00   -0.39439E-01   388   0.125E+00    0.242E-01
RMM:   2    -0.431073883066E+03   -0.45414E-03   -0.12180E-02   388   0.244E-01    0.146E-01
RMM:   3    -0.431073731364E+03    0.15170E-03   -0.81749E-04   385   0.497E-02    0.224E-02
RMM:   4    -0.431073731257E+03    0.10742E-06   -0.55489E-05   274   0.130E-02
   24 T=    10. E= -.43083164E+03 F= -.43107373E+03 E0= -.43107373E+03  EK= 0.24209E+00 SP= 0.00E+00 SK= 0.00E+00
       N       E                     dE             d eps       ncg     rms          rms(c)
RMM:   1    -0.431164010535E+03   -0.90279E-01   -0.50440E-02   388   0.361E-01    0.629E-02
RMM:   2    -0.431164266745E+03   -0.25621E-03   -0.23014E-03   376   0.949E-02    0.416E-02
RMM:   3    -0.431164276582E+03   -0.98378E-05   -0.13571E-04   291   0.182E-02
   25 T=    13. E= -.43084701E+03 F= -.43116428E+03 E0= -.43116428E+03  EK= 0.31727E+00 SP= 0.00E+00 SK= 0.00E+00
       N       E                     dE             d eps       ncg     rms          rms(c)
RMM:   1    -0.431300425153E+03   -0.13616E+00   -0.43884E-02   388   0.287E-01    0.392E-02
RMM:   2    -0.431300664874E+03   -0.23972E-03   -0.21266E-03   357   0.838E-02    0.265E-02
RMM:   3    -0.431300679520E+03   -0.14646E-04   -0.14214E-04   279   0.158E-02
   26 T=    17. E= -.43087055E+03 F= -.43130068E+03 E0= -.43130068E+03  EK= 0.43012E+00 SP= 0.00E+00 SK= 0.00E+00
       N       E                     dE             d eps       ncg     rms          rms(c)
RMM:   1    -0.431166902312E+03    0.13376E+00   -0.51035E-02   388   0.412E-01    0.691E-02
RMM:   2    -0.431167078526E+03   -0.17621E-03   -0.19371E-03   383   0.873E-02    0.420E-02
RMM:   3    -0.431167082656E+03   -0.41300E-05   -0.13373E-04   280   0.174E-02
   27 T=    13. E= -.43085498E+03 F= -.43116708E+03 E0= -.43116708E+03  EK= 0.31210E+00 SP= 0.00E+00 SK= 0.00E+00
       N       E                     dE             d eps       ncg     rms          rms(c)
RMM:   1    -0.430988985081E+03    0.17809E+00   -0.24755E-01   388   0.108E+00    0.198E-01
RMM:   2    -0.430989199705E+03   -0.21462E-03   -0.50697E-03   388   0.174E-01    0.123E-01
RMM:   3    -0.430989114451E+03    0.85254E-04   -0.31520E-04   328   0.348E-02
   28 T=     6. E= -.43082882E+03 F= -.43098911E+03 E0= -.43098911E+03  EK= 0.16030E+00 SP= 0.00E+00 SK= 0.00E+00
       N       E                     dE             d eps       ncg     rms          rms(c)
RMM:   1    -0.431115572070E+03   -0.12637E+00   -0.74226E-02   388   0.529E-01    0.102E-01
RMM:   2    -0.431115708547E+03   -0.13648E-03   -0.24868E-03   388   0.106E-01    0.609E-02
RMM:   3    -0.431115682959E+03    0.25587E-04   -0.20455E-04   293   0.234E-02
   29 T=    11. E= -.43084947E+03 F= -.43111568E+03 E0= -.43111568E+03  EK= 0.26622E+00 SP= 0.00E+00 SK= 0.00E+00
       N       E                     dE             d eps       ncg     rms          rms(c)
RMM:   1    -0.431276206749E+03   -0.16050E+00   -0.34446E-02   388   0.319E-01    0.631E-02
RMM:   2    -0.431276343485E+03   -0.13674E-03   -0.13939E-03   375   0.737E-02    0.401E-02
RMM:   3    -0.431276352598E+03   -0.91134E-05   -0.93505E-05   279   0.153E-02
   30 T=    16. E= -.43087051E+03 F= -.43127635E+03 E0= -.43127635E+03  EK= 0.40584E+00 SP= 0.00E+00 SK= 0.00E+00
       N       E                     dE             d eps       ncg     rms          rms(c)
RMM:   1    -0.431174967365E+03    0.10138E+00   -0.79410E-02   388   0.563E-01    0.989E-02
RMM:   2    -0.431175133142E+03   -0.16578E-03   -0.23785E-03   388   0.106E-01    0.585E-02
RMM:   3    -0.431175122886E+03    0.10255E-04   -0.15419E-04   292   0.211E-02
   31 T=    13. E= -.43085107E+03 F= -.43117512E+03 E0= -.43117512E+03  EK= 0.32405E+00 SP= 0.00E+00 SK= 0.00E+00
       N       E                     dE             d eps       ncg     rms          rms(c)
RMM:   1    -0.431068678734E+03    0.10645E+00   -0.22490E-01   388   0.105E+00    0.175E-01
RMM:   2    -0.431068943424E+03   -0.26469E-03   -0.42703E-03   388   0.159E-01    0.109E-01
RMM:   3    -0.431068887662E+03    0.55762E-04   -0.24012E-04   310   0.307E-02
   32 T=    10. E= -.43083182E+03 F= -.43106889E+03 E0= -.43106889E+03  EK= 0.23707E+00 SP= 0.00E+00 SK= 0.00E+00
       N       E                     dE             d eps       ncg     rms          rms(c)
RMM:   1    -0.431228562012E+03   -0.15962E+00   -0.40193E-02   388   0.348E-01    0.550E-02
RMM:   2    -0.431228741319E+03   -0.17931E-03   -0.16995E-03   370   0.805E-02    0.345E-02
RMM:   3    -0.431228752612E+03   -0.11293E-04   -0.10464E-04   281   0.161E-02
   33 T=    15. E= -.43084689E+03 F= -.43122875E+03 E0= -.43122875E+03  EK= 0.38187E+00 SP= 0.00E+00 SK= 0.00E+00
       N       E                     dE             d eps       ncg     rms          rms(c)
RMM:   1    -0.431440353306E+03   -0.21161E+00   -0.45967E-02   388   0.304E-01    0.507E-02
RMM:   2    -0.431440588795E+03   -0.23549E-03   -0.21680E-03   352   0.846E-02    0.311E-02
RMM:   3    -0.431440597481E+03   -0.86866E-05   -0.13380E-04   282   0.166E-02
   34 T=    23. E= -.43087140E+03 F= -.43144060E+03 E0= -.43144060E+03  EK= 0.56919E+00 SP= 0.00E+00 SK= 0.00E+00
       N       E                     dE             d eps       ncg     rms          rms(c)
RMM:   1    -0.431374351912E+03    0.66237E-01   -0.60077E-02   388   0.433E-01    0.880E-02
RMM:   2    -0.431374554982E+03   -0.20307E-03   -0.23546E-03   384   0.988E-02    0.542E-02
RMM:   3    -0.431374545147E+03    0.98350E-05   -0.15569E-04   285   0.207E-02
   35 T=    21. E= -.43085767E+03 F= -.43137455E+03 E0= -.43137455E+03  EK= 0.51688E+00 SP= 0.00E+00 SK= 0.00E+00
       N       E                     dE             d eps       ncg     rms          rms(c)
RMM:   1    -0.431233025706E+03    0.14153E+00   -0.42642E-01   388   0.142E+00    0.307E-01
RMM:   2    -0.431232969996E+03    0.55710E-04   -0.76417E-03   388   0.223E-01    0.189E-01
RMM:   3    -0.431232678534E+03    0.29146E-03   -0.41367E-04   375   0.432E-02    0.184E-02
RMM:   4    -0.431232671021E+03    0.75123E-05   -0.20950E-05   257   0.905E-03
   36 T=    16. E= -.43083126E+03 F= -.43123267E+03 E0= -.43123267E+03  EK= 0.40141E+00 SP= 0.00E+00 SK= 0.00E+00
       N       E                     dE             d eps       ncg     rms          rms(c)
RMM:   1    -0.431366363086E+03   -0.13368E+00   -0.84454E-02   388   0.501E-01    0.973E-02
RMM:   2    -0.431366673903E+03   -0.31082E-03   -0.34029E-03   386   0.120E-01    0.616E-02
RMM:   3    -0.431366670838E+03    0.30649E-05   -0.23548E-04   308   0.257E-02
   37 T=    21. E= -.43085143E+03 F= -.43136667E+03 E0= -.43136667E+03  EK= 0.51524E+00 SP= 0.00E+00 SK= 0.00E+00
       N       E                     dE             d eps       ncg     rms          rms(c)
RMM:   1    -0.431511385061E+03   -0.14471E+00   -0.83751E-02   388   0.386E-01    0.655E-02
RMM:   2    -0.431511783285E+03   -0.39822E-03   -0.38280E-03   376   0.109E-01    0.402E-02
RMM:   3    -0.431511805064E+03   -0.21779E-04   -0.24227E-04   288   0.212E-02
   38 T=    26. E= -.43087317E+03 F= -.43151181E+03 E0= -.43151181E+03  EK= 0.63864E+00 SP= 0.00E+00 SK= 0.00E+00
       N       E                     dE             d eps       ncg     rms          rms(c)
RMM:   1    -0.431362891558E+03    0.14889E+00   -0.72255E-02   388   0.438E-01    0.785E-02
RMM:   2    -0.431363166402E+03   -0.27484E-03   -0.29199E-03   384   0.101E-01    0.463E-02
RMM:   3    -0.431363176937E+03   -0.10536E-04   -0.19216E-04   287   0.206E-02
   39 T=    21. E= -.43085328E+03 F= -.43136318E+03 E0= -.43136318E+03  EK= 0.50989E+00 SP= 0.00E+00 SK= 0.00E+00
       N       E                     dE             d eps       ncg     rms          rms(c)
RMM:   1    -0.431180971240E+03    0.18220E+00   -0.32959E-01   388   0.127E+00    0.232E-01
RMM:   2    -0.431181162903E+03   -0.19166E-03   -0.56980E-03   388   0.190E-01    0.146E-01
RMM:   3    -0.431181019944E+03    0.14296E-03   -0.29466E-04   335   0.363E-02    0.917E-03
RMM:   4    -0.431181020049E+03   -0.10504E-06   -0.12999E-05   255   0.695E-03
   40 T=    14. E= -.43083290E+03 F= -.43118102E+03 E0= -.43118102E+03  EK= 0.34812E+00 SP= 0.00E+00 SK= 0.00E+00
       N       E                     dE             d eps       ncg     rms          rms(c)
RMM:   1    -0.431254829702E+03   -0.73810E-01   -0.56844E-02   388   0.393E-01    0.788E-02
RMM:   2    -0.431255048551E+03   -0.21885E-03   -0.22166E-03   378   0.917E-02    0.487E-02
RMM:   3    -0.431255056089E+03   -0.75384E-05   -0.13894E-04   279   0.191E-02
   41 T=    17. E= -.43084605E+03 F= -.43125506E+03 E0= -.43125506E+03  EK= 0.40901E+00 SP= 0.00E+00 SK= 0.00E+00
       N       E                     dE             d eps       ncg     rms          rms(c)
RMM:   1    -0.431400801715E+03   -0.14575E+00   -0.43861E-02   388   0.311E-01    0.433E-02
RMM:   2    -0.431401030025E+03   -0.22831E-03   -0.20242E-03   352   0.839E-02    0.276E-02
RMM:   3    -0.431401041371E+03   -0.11346E-04   -0.11937E-04   279   0.166E-02
   42 T=    22. E= -.43086893E+03 F= -.43140104E+03 E0= -.43140104E+03  EK= 0.53211E+00 SP= 0.00E+00 SK= 0.00E+00
       N       E                     dE             d eps       ncg     rms          rms(c)
RMM:   1    -0.431308839009E+03    0.92191E-01   -0.66764E-02   388   0.496E-01    0.773E-02
RMM:   2    -0.431309064567E+03   -0.22556E-03   -0.23642E-03   388   0.101E-01    0.479E-02
RMM:   3    -0.431309061102E+03    0.34648E-05   -0.14977E-04   287   0.208E-02
   43 T=    18. E= -.43085651E+03 F= -.43130906E+03 E0= -.43130906E+03  EK= 0.45255E+00 SP= 0.00E+00 SK= 0.00E+00
       N       E                     dE             d eps       ncg     rms          rms(c)
RMM:   1    -0.431161236254E+03    0.14783E+00   -0.30476E-01   388   0.126E+00    0.253E-01
RMM:   2    -0.431161324848E+03   -0.88593E-04   -0.46805E-03   388   0.178E-01    0.161E-01
RMM:   3    -0.431161110574E+03    0.21427E-03   -0.27428E-04   329   0.356E-02    0.150E-02
RMM:   4    -0.431161107029E+03    0.35442E-05   -0.14286E-05   256   0.719E-03
   44 T=    13. E= -.43083061E+03 F= -.43116111E+03 E0= -.43116111E+03  EK= 0.33049E+00 SP= 0.00E+00 SK= 0.00E+00
       N       E                     dE             d eps       ncg     rms          rms(c)
RMM:   1    -0.431302479842E+03   -0.14137E+00   -0.81812E-02   388   0.551E-01    0.103E-01
RMM:   2    -0.431302680097E+03   -0.20025E-03   -0.24646E-03   388   0.108E-01    0.653E-02
RMM:   3    -0.431302665253E+03    0.14843E-04   -0.17489E-04   298   0.234E-02
   45 T=    18. E= -.43084764E+03 F= -.43130267E+03 E0= -.43130267E+03  EK= 0.45503E+00 SP= 0.00E+00 SK= 0.00E+00
       N       E                     dE             d eps       ncg     rms          rms(c)
RMM:   1    -0.431510122212E+03   -0.20744E+00   -0.66895E-02   388   0.399E-01    0.688E-02
RMM:   2    -0.431510399281E+03   -0.27707E-03   -0.26951E-03   382   0.970E-02    0.425E-02
RMM:   3    -0.431510410080E+03   -0.10799E-04   -0.16151E-04   282   0.188E-02
   46 T=    26. E= -.43087061E+03 F= -.43151041E+03 E0= -.43151041E+03  EK= 0.63980E+00 SP= 0.00E+00 SK= 0.00E+00
       N       E                     dE             d eps       ncg     rms          rms(c)
RMM:   1    -0.431462937765E+03    0.47462E-01   -0.85551E-02   388   0.585E-01    0.103E-01
RMM:   2    -0.431463121809E+03   -0.18404E-03   -0.25294E-03   388   0.111E-01    0.610E-02
RMM:   3    -0.431463118209E+03    0.36002E-05   -0.14754E-04   282   0.216E-02
   47 T=    25. E= -.43085641E+03 F= -.43146312E+03 E0= -.43146312E+03  EK= 0.60670E+00 SP= 0.00E+00 SK= 0.00E+00
       N       E                     dE             d eps       ncg     rms          rms(c)
RMM:   1    -0.431345158188E+03    0.11796E+00   -0.36244E-01   388   0.136E+00    0.255E-01
RMM:   2    -0.431345235097E+03   -0.76909E-04   -0.65113E-03   388   0.204E-01    0.158E-01
RMM:   3    -0.431345071951E+03    0.16315E-03   -0.30185E-04   353   0.390E-02    0.194E-02
RMM:   4    -0.431345070377E+03    0.15737E-05   -0.11709E-05   253   0.702E-03
   48 T=    21. E= -.43083648E+03 F= -.43134507E+03 E0= -.43134507E+03  EK= 0.50859E+00 SP= 0.00E+00 SK= 0.00E+00
       N       E                     dE             d eps       ncg     rms          rms(c)
RMM:   1    -0.431442694880E+03   -0.97623E-01   -0.67922E-02   388   0.494E-01    0.865E-02
RMM:   2    -0.431442904823E+03   -0.20994E-03   -0.22228E-03   386   0.104E-01    0.543E-02
RMM:   3    -0.431442908416E+03   -0.35926E-05   -0.12597E-04   280   0.200E-02
   49 T=    24. E= -.43084396E+03 F= -.43144291E+03 E0= -.43144291E+03  EK= 0.59895E+00 SP= 0.00E+00 SK= 0.00E+00
       N       E                     dE             d eps       ncg     rms          rms(c)
RMM:   1    -0.431650337231E+03   -0.20743E+00   -0.47166E-02   388   0.352E-01    0.556E-02
RMM:   2    -0.431650531906E+03   -0.19468E-03   -0.18451E-03   381   0.873E-02    0.361E-02
RMM:   3    -0.431650536692E+03   -0.47857E-05   -0.10210E-04   280   0.166E-02
   50 T=    32. E= -.43086657E+03 F= -.43165054E+03 E0= -.43165054E+03  EK= 0.78397E+00 SP= 0.00E+00 SK= 0.00E+00
