 vasp.6.1.0 28Jan20 (build Aug 17 2020 17:33:25) gamma-only                      
 executed on             LinuxGNU date 2021.02.05  13:59:02
 running on    4 total cores
 distrk:  each k-point on    4 cores,    1 groups
 distr:  one band on NCORE=   2 cores,    2 groups


--------------------------------------------------------------------------------------------------------


 INCAR:
 POTCAR:    PAW_PBE H_GW 21Apr2008                
 POTCAR:    PAW_PBE H_GW 21Apr2008                
   VRHFIN =H: ultrasoft test                                                                        
   LEXCH  = PE                                                                                      
   EATOM  =    12.4884 eV,    0.9179 Ry                                                             
                                                                                                    
   TITEL  = PAW_PBE H_GW 21Apr2008                                                                  
   LULTRA =        F    use ultrasoft PP ?                                                          
   IUNSCR =        0    unscreen: 0-lin 1-nonlin 2-no                                               
   RPACOR =    0.000    partial core radius                                                         
   POMASS =    1.000; ZVAL   =    1.000    mass and valenz                                          
   RCORE  =    1.100    outmost cutoff radius                                                       
   RWIGS  =    1.100; RWIGS  =    0.582    wigner-seitz radius (au A)                               
   ENMAX  =  300.000; ENMIN  =  250.000 eV                                                          
   RCLOC  =    0.701    cutoff for local pot                                                        
   LCOR   =        T    correct aug charges                                                         
   LPAW   =        T    paw PP                                                                      
   EAUG   =  500.000                                                                                
   RMAX   =    1.123    core radius for proj-oper                                                   
   RAUG   =    1.200    factor for augmentation sphere                                              
   RDEP   =    1.112    radius for radial grids                                                     
   RDEPT  =    1.100    core radius for aug-charge                                                  
                                                                                                    
   Atomic configuration                                                                             
    3 entries                                                                                       
     n  l   j            E        occ.                                                              
     1  0  0.50        -6.4927   1.0000                                                             
     2  1  0.50        -3.4015   0.0000                                                             
     3  2  1.50        13.6058   0.0000                                                             
   Description                                                                                      
     l       E           TYP  RCUT    TYP  RCUT                                                     
     0     -6.4927495     23  0.950                                                                 
     0      6.8029130     23  0.950                                                                 
     1     -4.0817478     23  1.100                                                                 
     1    108.8466080     23  1.100                                                                 
     2     81.6349560     23  1.100                                                                 
  local pseudopotential read in
  kinetic energy density of atom read in
  atomic valenz-charges read in
  non local Contribution for L=           0  read in
    real space projection operators read in
  non local Contribution for L=           0  read in
    real space projection operators read in
  non local Contribution for L=           1  read in
    real space projection operators read in
  non local Contribution for L=           1  read in
    real space projection operators read in
  non local Contribution for L=           2  read in
    real space projection operators read in
    PAW grid and wavefunctions read in

   number of l-projection  operators is LMAX  =           5
   number of lm-projection operators is LMMAX =          13

 Optimization of the real space projectors (new method)

 maximal supplied QI-value         = 34.20
 optimisation between [QCUT,QGAM] = [  8.55, 17.44] = [ 20.48, 85.21] Ry 
 Optimized for a Real-space Cutoff    1.64 Angstroem

   l    n(q)    QCUT    max X(q) W(low)/X(q) W(high)/X(q)  e(spline) 
   0      9     8.551    23.028    0.46E-03    0.10E-02    0.10E-05
   0      9     8.551    14.338    0.43E-03    0.94E-03    0.97E-06
   1      8     8.551     1.580    0.15E-02    0.32E-02    0.16E-05
   1      8     8.551     1.941    0.77E-03    0.17E-02    0.92E-06
   2      8     8.551     3.552    0.15E-02    0.24E-02    0.77E-06
  PAW_PBE H_GW 21Apr2008                :
 energy of atom  1       EATOM=  -12.4884
 kinetic energy error for atom=    0.0915 (will be added to EATOM!!)


 POSCAR: 222
  positions in direct lattice
  No initial velocities read in
 exchange correlation table for  LEXCH =        8
   RHO(1)=    0.500       N(1)  =     2000
   RHO(2)=  100.500       N(2)  =     4000



--------------------------------------------------------------------------------------------------------


 ion  position               nearest neighbor table
   1  0.250  0.421  0.060- 122 0.75 171 1.26 174 1.40
   2  0.878  0.155  0.563- 100 0.74  72 1.26   4 1.37
   3  0.504  0.170  0.562-  99 0.74   5 1.28  11 1.39
   4  0.998  0.410  0.565- 149 0.75  11 1.29   2 1.37
   5  0.608  0.037  0.569- 148 0.75   3 1.28  72 1.40
   6  0.829  0.500  0.690-   7 0.75   8 1.26  60 1.40
   7  0.943  0.490  0.694-   6 0.75  10 1.29 153 1.39
   8  0.595  0.372  0.687-   9 0.74   6 1.26 108 1.37
   9  0.580  0.246  0.688-   8 0.74  12 1.28 151 1.39
  10  0.840  0.252  0.685-  12 0.75   7 1.29 105 1.37
  11  0.760  0.307  0.556-  24 0.75   4 1.29   3 1.39
  12  0.713  0.142  0.681-  10 0.75   9 1.28  54 1.40
  13  0.740  0.193  0.944-  22 0.75  16 1.29  15 1.39
  14  0.622  0.345  0.937- 112 0.74  70 1.26  16 1.37
  15  0.996  0.330  0.938- 111 0.74  17 1.28  13 1.39
  16  0.502  0.090  0.935- 161 0.75  13 1.29  14 1.37
  17  0.892  0.463  0.931- 160 0.75  15 1.28  70 1.40
  18  0.671  0.000  0.810-  19 0.75  20 1.26 192 1.40
  19  0.557  0.010  0.806-  18 0.75  23 1.29 165 1.39
  20  0.905  0.128  0.813-  21 0.74  18 1.26 143 1.37
  21  0.920  0.254  0.812-  20 0.74  48 1.28 163 1.39
  22  0.750  0.079  0.940-  13 0.75  62 1.26  65 1.40
  23  0.660  0.248  0.815-  48 0.75  19 1.29 117 1.37
  24  0.750  0.421  0.560-  11 0.75  50 1.26  53 1.40
  25  0.660  0.248  0.315-  35 0.75  43 1.29 141 1.37
  26  0.878  0.155  0.063- 124 0.74  71 1.26  28 1.37
  27  0.504  0.170  0.062- 123 0.74  29 1.28  47 1.39
  28  0.998  0.410  0.065- 174 0.75  47 1.29  26 1.37
  29  0.608  0.037  0.069- 173 0.75  27 1.28  71 1.40
  30  0.829  0.500  0.190-  31 0.75  32 1.26  84 1.40
  31  0.943  0.490  0.194-  30 0.75  34 1.29 178 1.39
  32  0.595  0.372  0.187-  33 0.74  30 1.26 132 1.37
  33  0.580  0.246  0.188-  32 0.74  36 1.28 176 1.39
  34  0.840  0.252  0.185-  36 0.75  31 1.29 129 1.37
  35  0.787  0.358  0.319-  25 0.75  45 1.28  90 1.40
  36  0.713  0.142  0.181-  34 0.75  33 1.28  78 1.40
  37  0.740  0.193  0.444-  46 0.75  40 1.29  39 1.39
  38  0.622  0.345  0.437- 136 0.74  94 1.26  40 1.37
  39  0.996  0.330  0.438- 135 0.74  41 1.28  37 1.39
  40  0.502  0.090  0.435- 186 0.75  37 1.29  38 1.37
  41  0.892  0.463  0.431- 185 0.75  39 1.28  94 1.40
  42  0.671  0.000  0.310-  43 0.75  44 1.26  83 1.40
  43  0.557  0.010  0.306-  42 0.75  25 1.29 190 1.39
  44  0.905  0.128  0.313-  45 0.74  42 1.26 131 1.37
  45  0.920  0.254  0.312-  44 0.74  35 1.28 188 1.39
  46  0.750  0.079  0.440-  37 0.75  86 1.26  89 1.40
  47  0.760  0.307  0.056-  95 0.75  28 1.29  27 1.39
  48  0.787  0.358  0.819-  23 0.75  21 1.28  66 1.40
  49  0.760  0.807  0.056-  71 0.75  76 1.29  75 1.39
  50  0.878  0.655  0.563- 147 0.74  24 1.26  52 1.37
  51  0.504  0.670  0.562- 146 0.74  53 1.28  59 1.39
  52  0.998  0.910  0.565- 102 0.75  59 1.29  50 1.37
  53  0.608  0.537  0.569- 101 0.75  51 1.28  24 1.40
  54  0.829  1.000  0.690-  55 0.75  56 1.26  12 1.40
  55  0.943  0.990  0.694-  54 0.75  58 1.29 106 1.39
  56  0.595  0.872  0.687-  57 0.74  54 1.26 154 1.37
  57  0.580  0.746  0.688-  56 0.74  60 1.28 104 1.39
  58  0.840  0.752  0.685-  60 0.75  55 1.29 152 1.37
  59  0.760  0.807  0.556-  72 0.75  52 1.29  51 1.39
  60  0.713  0.642  0.681-  58 0.75  57 1.28   6 1.40
  61  0.740  0.693  0.944-  70 0.75  64 1.29  63 1.39
  62  0.622  0.845  0.937- 159 0.74  22 1.26  64 1.37
  63  0.996  0.830  0.938- 158 0.74  65 1.28  61 1.39
  64  0.502  0.590  0.935- 114 0.75  61 1.29  62 1.37
  65  0.892  0.963  0.931- 113 0.75  63 1.28  22 1.40
  66  0.671  0.500  0.810-  67 0.75  68 1.26  48 1.40
  67  0.557  0.510  0.806-  66 0.75 191 1.29 119 1.39
  68  0.905  0.628  0.813-  69 0.74  66 1.26  97 1.37
  69  0.920  0.754  0.812-  68 0.74 192 1.28 116 1.39
  70  0.750  0.579  0.940-  61 0.75  14 1.26  17 1.40
  71  0.750  0.921  0.060-  49 0.75  26 1.26  29 1.40
  72  0.750  0.921  0.560-  59 0.75   2 1.26   5 1.40
  73  0.660  0.748  0.315-  83 0.75  91 1.29 189 1.37
  74  0.878  0.655  0.063- 172 0.74  95 1.26  76 1.37
  75  0.504  0.670  0.062- 171 0.74  77 1.28  49 1.39
  76  0.998  0.910  0.065- 126 0.75  49 1.29  74 1.37
  77  0.608  0.537  0.069- 125 0.75  75 1.28  95 1.40
  78  0.829  1.000  0.190-  79 0.75  80 1.26  36 1.40
  79  0.943  0.990  0.194-  78 0.75  82 1.29 130 1.39
  80  0.595  0.872  0.187-  81 0.74  78 1.26 179 1.37
  81  0.580  0.746  0.188-  80 0.74  84 1.28 128 1.39
  82  0.840  0.752  0.185-  84 0.75  79 1.29 177 1.37
  83  0.787  0.858  0.319-  73 0.75  93 1.28  42 1.40
  84  0.713  0.642  0.181-  82 0.75  81 1.28  30 1.40
  85  0.740  0.693  0.444-  94 0.75  88 1.29  87 1.39
  86  0.622  0.845  0.437- 184 0.74  46 1.26  88 1.37
  87  0.996  0.830  0.438- 183 0.74  89 1.28  85 1.39
  88  0.502  0.590  0.435- 138 0.75  85 1.29  86 1.37
  89  0.892  0.963  0.431- 137 0.75  87 1.28  46 1.40
  90  0.671  0.500  0.310-  91 0.75  92 1.26  35 1.40
  91  0.557  0.510  0.306-  90 0.75  73 1.29 121 1.39
  92  0.905  0.628  0.313-  93 0.74  90 1.26 169 1.37
  93  0.920  0.754  0.312-  92 0.74  83 1.28 140 1.39
  94  0.750  0.579  0.440-  85 0.75  38 1.26  41 1.40
  95  0.750  0.421  0.060-  47 0.75  74 1.26  77 1.40
  96  0.287  0.858  0.819-  97 0.75 165 1.28 115 1.40
  97  0.160  0.748  0.815-  96 0.75 163 1.29  68 1.37
  98  0.260  0.307  0.556- 107 0.75 101 1.29 100 1.39
  99  0.378  0.155  0.563-   3 0.74 167 1.26 101 1.37
 100  0.004  0.170  0.562-   2 0.74 102 1.28  98 1.39
 101  0.498  0.410  0.565-  53 0.75  98 1.29  99 1.37
 102  0.108  0.037  0.569-  52 0.75 100 1.28 167 1.40
 103  0.329  0.500  0.690- 104 0.75 105 1.26 156 1.40
 104  0.443  0.490  0.694- 103 0.75 108 1.29  57 1.39
 105  0.095  0.372  0.687- 106 0.74 103 1.26  10 1.37
 106  0.080  0.246  0.688- 105 0.74 118 1.28  55 1.39
 107  0.250  0.421  0.560-  98 0.75 146 1.26 149 1.40
 108  0.340  0.252  0.685- 118 0.75 104 1.29   8 1.37
 109  0.250  0.079  0.940- 110 0.75 158 1.26 161 1.40
 110  0.240  0.193  0.944- 109 0.75 113 1.29 112 1.39
 111  0.122  0.345  0.937-  15 0.74 166 1.26 113 1.37
 112  0.496  0.330  0.938-  14 0.74 114 1.28 110 1.39
 113  0.002  0.090  0.935-  65 0.75 110 1.29 111 1.37
 114  0.392  0.463  0.931-  64 0.75 112 1.28 166 1.40
 115  0.171  0.000  0.810- 116 0.75 117 1.26  96 1.40
 116  0.057  0.010  0.806- 115 0.75 143 1.29  69 1.39
 117  0.405  0.128  0.813- 119 0.74 115 1.26  23 1.37
 118  0.213  0.142  0.681- 108 0.75 106 1.28 150 1.40
 119  0.420  0.254  0.812- 117 0.74 144 1.28  67 1.39
 120  0.287  0.358  0.319- 131 0.75 121 1.28 187 1.40
 121  0.420  0.254  0.312- 141 0.74 120 1.28  91 1.39
 122  0.260  0.307  0.056-   1 0.75 125 1.29 124 1.39
 123  0.378  0.155  0.063-  27 0.74 145 1.26 125 1.37
 124  0.004  0.170  0.062-  26 0.74 126 1.28 122 1.39
 125  0.498  0.410  0.065-  77 0.75 122 1.29 123 1.37
 126  0.108  0.037  0.069-  76 0.75 124 1.28 145 1.40
 127  0.329  0.500  0.190- 128 0.75 129 1.26 180 1.40
 128  0.443  0.490  0.194- 127 0.75 132 1.29  81 1.39
 129  0.095  0.372  0.187- 130 0.74 127 1.26  34 1.37
 130  0.080  0.246  0.188- 129 0.74 142 1.28  79 1.39
 131  0.160  0.248  0.315- 120 0.75 140 1.29  44 1.37
 132  0.340  0.252  0.185- 142 0.75 128 1.29  32 1.37
 133  0.250  0.079  0.440- 134 0.75 183 1.26 186 1.40
 134  0.240  0.193  0.444- 133 0.75 137 1.29 136 1.39
 135  0.122  0.345  0.437-  39 0.74 181 1.26 137 1.37
 136  0.496  0.330  0.438-  38 0.74 138 1.28 134 1.39
 137  0.002  0.090  0.435-  89 0.75 134 1.29 135 1.37
 138  0.392  0.463  0.431-  88 0.75 136 1.28 181 1.40
 139  0.171  0.000  0.310- 140 0.75 141 1.26 168 1.40
 140  0.057  0.010  0.306- 139 0.75 131 1.29  93 1.39
 141  0.405  0.128  0.313- 121 0.74 139 1.26  25 1.37
 142  0.213  0.142  0.181- 132 0.75 130 1.28 175 1.40
 143  0.160  0.248  0.815- 144 0.75 116 1.29  20 1.37
 144  0.287  0.358  0.819- 143 0.75 119 1.28 162 1.40
 145  0.250  0.921  0.060- 170 0.75 123 1.26 126 1.40
 146  0.378  0.655  0.563-  51 0.74 107 1.26 148 1.37
 147  0.004  0.670  0.562-  50 0.74 149 1.28 155 1.39
 148  0.498  0.910  0.565-   5 0.75 155 1.29 146 1.37
 149  0.108  0.537  0.569-   4 0.75 147 1.28 107 1.40
 150  0.329  1.000  0.690- 151 0.75 152 1.26 118 1.40
 151  0.443  0.990  0.694- 150 0.75 154 1.29   9 1.39
 152  0.095  0.872  0.687- 153 0.74 150 1.26  58 1.37
 153  0.080  0.746  0.688- 152 0.74 156 1.28   7 1.39
 154  0.340  0.752  0.685- 156 0.75 151 1.29  56 1.37
 155  0.260  0.807  0.556- 167 0.75 148 1.29 147 1.39
 156  0.213  0.642  0.681- 154 0.75 153 1.28 103 1.40
 157  0.240  0.693  0.944- 166 0.75 160 1.29 159 1.39
 158  0.122  0.845  0.937-  63 0.74 109 1.26 160 1.37
 159  0.496  0.830  0.938-  62 0.74 161 1.28 157 1.39
 160  0.002  0.590  0.935-  17 0.75 157 1.29 158 1.37
 161  0.392  0.963  0.931-  16 0.75 159 1.28 109 1.40
 162  0.171  0.500  0.810- 163 0.75 164 1.26 144 1.40
 163  0.057  0.510  0.806- 162 0.75  97 1.29  21 1.39
 164  0.405  0.628  0.813- 165 0.74 162 1.26 191 1.37
 165  0.420  0.754  0.812- 164 0.74  96 1.28  19 1.39
 166  0.250  0.579  0.940- 157 0.75 111 1.26 114 1.40
 167  0.250  0.921  0.560- 155 0.75  99 1.26 102 1.40
 168  0.287  0.858  0.319- 169 0.75 190 1.28 139 1.40
 169  0.160  0.748  0.315- 168 0.75 188 1.29  92 1.37
 170  0.260  0.807  0.056- 145 0.75 173 1.29 172 1.39
 171  0.378  0.655  0.063-  75 0.74   1 1.26 173 1.37
 172  0.004  0.670  0.062-  74 0.74 174 1.28 170 1.39
 173  0.498  0.910  0.065-  29 0.75 170 1.29 171 1.37
 174  0.108  0.537  0.069-  28 0.75 172 1.28   1 1.40
 175  0.329  1.000  0.190- 176 0.75 177 1.26 142 1.40
 176  0.443  0.990  0.194- 175 0.75 179 1.29  33 1.39
 177  0.095  0.872  0.187- 178 0.74 175 1.26  82 1.37
 178  0.080  0.746  0.188- 177 0.74 180 1.28  31 1.39
 179  0.340  0.752  0.185- 180 0.75 176 1.29  80 1.37
 180  0.213  0.642  0.181- 179 0.75 178 1.28 127 1.40
 181  0.250  0.579  0.440- 182 0.75 135 1.26 138 1.40
 182  0.240  0.693  0.444- 181 0.75 185 1.29 184 1.39
 183  0.122  0.845  0.437-  87 0.74 133 1.26 185 1.37
 184  0.496  0.830  0.438-  86 0.74 186 1.28 182 1.39
 185  0.002  0.590  0.435-  41 0.75 182 1.29 183 1.37
 186  0.392  0.963  0.431-  40 0.75 184 1.28 133 1.40
 187  0.171  0.500  0.310- 188 0.75 189 1.26 120 1.40
 188  0.057  0.510  0.306- 187 0.75 169 1.29  45 1.39
 189  0.405  0.628  0.313- 190 0.74 187 1.26  73 1.37
 190  0.420  0.754  0.312- 189 0.74 168 1.28  43 1.39
 191  0.660  0.748  0.815- 192 0.75  67 1.29 164 1.37
 192  0.787  0.858  0.819- 191 0.75  69 1.28  18 1.40


IMPORTANT INFORMATION: All symmetrisations will be switched off!
NOSYMM: (Re-)initialisation of all symmetry stuff for point group C_1.


----------------------------------------------------------------------------------------

                                     Primitive cell                                     

  volume of cell :     372.4408

  direct lattice vectors                    reciprocal lattice vectors
     6.223215225  0.000000000  0.000000000     0.160688641  0.092530570 -0.000000000
    -3.105484316  5.392985881  0.000000000     0.000000000  0.185426037  0.000000000
     0.000000000  0.000000000 11.097194000     0.000000000 -0.000000000  0.090112870

  length of vectors
     6.223215225  6.223208944 11.097194000     0.185425850  0.185426037  0.090112870

  position of ions in fractional coordinates (direct lattice)
     0.250304339  0.421139010  0.060094313
     0.878162693  0.155085949  0.562841946
     0.503951573  0.169666010  0.562335131
     0.997904192  0.409643660  0.564749134
     0.607793363  0.036750255  0.569065562
     0.828862289  0.499695101  0.689905666
     0.943112254  0.489697091  0.694082609
     0.594913749  0.371832322  0.687158470
     0.580335039  0.246053314  0.687664636
     0.840352683  0.252092406  0.685250815
     0.760302656  0.306885456  0.555917268
     0.713254053  0.142210540  0.680934393
     0.739697344  0.193114544  0.944082732
     0.621837307  0.344914051  0.937158054
     0.996048427  0.330333990  0.937664869
     0.502095808  0.090356340  0.935250866
     0.892206637  0.463249745  0.930934438
     0.671137711  0.000304899  0.810094334
     0.556887746  0.010302909  0.805917391
     0.905086251  0.128167678  0.812841530
     0.919664961  0.253946686  0.812335364
     0.749695661  0.078860990  0.939905687
     0.659647317  0.247907594  0.814749185
     0.750304339  0.421139010  0.560094313
     0.659647317  0.247907594  0.314749185
     0.878162693  0.155085949  0.062841946
     0.503951573  0.169666010  0.062335131
     0.997904192  0.409643660  0.064749134
     0.607793363  0.036750255  0.069065562
     0.828862289  0.499695101  0.189905666
     0.943112254  0.489697091  0.194082609
     0.594913749  0.371832322  0.187158470
     0.580335039  0.246053314  0.187664636
     0.840352683  0.252092406  0.185250815
     0.786745947  0.357789460  0.319065607
     0.713254053  0.142210540  0.180934393
     0.739697344  0.193114544  0.444082732
     0.621837307  0.344914051  0.437158054
     0.996048427  0.330333990  0.437664869
     0.502095808  0.090356340  0.435250866
     0.892206637  0.463249745  0.430934438
     0.671137711  0.000304899  0.310094334
     0.556887746  0.010302909  0.305917391
     0.905086251  0.128167678  0.312841530
     0.919664961  0.253946686  0.312335364
     0.749695661  0.078860990  0.439905687
     0.760302656  0.306885456  0.055917268
     0.786745947  0.357789460  0.819065607
     0.760302656  0.806885456  0.055917268
     0.878162693  0.655085949  0.562841946
     0.503951573  0.669666010  0.562335131
     0.997904192  0.909643660  0.564749134
     0.607793363  0.536750255  0.569065562
     0.828862289  0.999695101  0.689905666
     0.943112254  0.989697091  0.694082609
     0.594913749  0.871832322  0.687158470
     0.580335039  0.746053314  0.687664636
     0.840352683  0.752092406  0.685250815
     0.760302656  0.806885456  0.555917268
     0.713254053  0.642210540  0.680934393
     0.739697344  0.693114544  0.944082732
     0.621837307  0.844914051  0.937158054
     0.996048427  0.830333990  0.937664869
     0.502095808  0.590356340  0.935250866
     0.892206637  0.963249745  0.930934438
     0.671137711  0.500304899  0.810094334
     0.556887746  0.510302909  0.805917391
     0.905086251  0.628167678  0.812841530
     0.919664961  0.753946686  0.812335364
     0.749695661  0.578860990  0.939905687
     0.750304339  0.921139010  0.060094313
     0.750304339  0.921139010  0.560094313
     0.659647317  0.747907594  0.314749185
     0.878162693  0.655085949  0.062841946
     0.503951573  0.669666010  0.062335131
     0.997904192  0.909643660  0.064749134
     0.607793363  0.536750255  0.069065562
     0.828862289  0.999695101  0.189905666
     0.943112254  0.989697091  0.194082609
     0.594913749  0.871832322  0.187158470
     0.580335039  0.746053314  0.187664636
     0.840352683  0.752092406  0.185250815
     0.786745947  0.857789460  0.319065607
     0.713254053  0.642210540  0.180934393
     0.739697344  0.693114544  0.444082732
     0.621837307  0.844914051  0.437158054
     0.996048427  0.830333990  0.437664869
     0.502095808  0.590356340  0.435250866
     0.892206637  0.963249745  0.430934438
     0.671137711  0.500304899  0.310094334
     0.556887746  0.510302909  0.305917391
     0.905086251  0.628167678  0.312841530
     0.919664961  0.753946686  0.312335364
     0.749695661  0.578860990  0.439905687
     0.750304339  0.421139010  0.060094313
     0.286745947  0.857789460  0.819065607
     0.159647317  0.747907594  0.814749185
     0.260302656  0.306885456  0.555917268
     0.378162693  0.155085949  0.562841946
     0.003951573  0.169666010  0.562335131
     0.497904192  0.409643660  0.564749134
     0.107793363  0.036750255  0.569065562
     0.328862289  0.499695101  0.689905666
     0.443112254  0.489697091  0.694082609
     0.094913749  0.371832322  0.687158470
     0.080335039  0.246053314  0.687664636
     0.250304339  0.421139010  0.560094313
     0.340352683  0.252092406  0.685250815
     0.249695661  0.078860990  0.939905687
     0.239697344  0.193114544  0.944082732
     0.121837307  0.344914051  0.937158054
     0.496048427  0.330333990  0.937664869
     0.002095808  0.090356340  0.935250866
     0.392206637  0.463249745  0.930934438
     0.171137711  0.000304899  0.810094334
     0.056887746  0.010302909  0.805917391
     0.405086251  0.128167678  0.812841530
     0.213254053  0.142210540  0.680934393
     0.419664961  0.253946686  0.812335364
     0.286745947  0.357789460  0.319065607
     0.419664961  0.253946686  0.312335364
     0.260302656  0.306885456  0.055917268
     0.378162693  0.155085949  0.062841946
     0.003951573  0.169666010  0.062335131
     0.497904192  0.409643660  0.064749134
     0.107793363  0.036750255  0.069065562
     0.328862289  0.499695101  0.189905666
     0.443112254  0.489697091  0.194082609
     0.094913749  0.371832322  0.187158470
     0.080335039  0.246053314  0.187664636
     0.159647317  0.247907594  0.314749185
     0.340352683  0.252092406  0.185250815
     0.249695661  0.078860990  0.439905687
     0.239697344  0.193114544  0.444082732
     0.121837307  0.344914051  0.437158054
     0.496048427  0.330333990  0.437664869
     0.002095808  0.090356340  0.435250866
     0.392206637  0.463249745  0.430934438
     0.171137711  0.000304899  0.310094334
     0.056887746  0.010302909  0.305917391
     0.405086251  0.128167678  0.312841530
     0.213254053  0.142210540  0.180934393
     0.159647317  0.247907594  0.814749185
     0.286745947  0.357789460  0.819065607
     0.250304339  0.921139010  0.060094313
     0.378162693  0.655085949  0.562841946
     0.003951573  0.669666010  0.562335131
     0.497904192  0.909643660  0.564749134
     0.107793363  0.536750255  0.569065562
     0.328862289  0.999695101  0.689905666
     0.443112254  0.989697091  0.694082609
     0.094913749  0.871832322  0.687158470
     0.080335039  0.746053314  0.687664636
     0.340352683  0.752092406  0.685250815
     0.260302656  0.806885456  0.555917268
     0.213254053  0.642210540  0.680934393
     0.239697344  0.693114544  0.944082732
     0.121837307  0.844914051  0.937158054
     0.496048427  0.830333990  0.937664869
     0.002095808  0.590356340  0.935250866
     0.392206637  0.963249745  0.930934438
     0.171137711  0.500304899  0.810094334
     0.056887746  0.510302909  0.805917391
     0.405086251  0.628167678  0.812841530
     0.419664961  0.753946686  0.812335364
     0.249695661  0.578860990  0.939905687
     0.250304339  0.921139010  0.560094313
     0.286745947  0.857789460  0.319065607
     0.159647317  0.747907594  0.314749185
     0.260302656  0.806885456  0.055917268
     0.378162693  0.655085949  0.062841946
     0.003951573  0.669666010  0.062335131
     0.497904192  0.909643660  0.064749134
     0.107793363  0.536750255  0.069065562
     0.328862289  0.999695101  0.189905666
     0.443112254  0.989697091  0.194082609
     0.094913749  0.871832322  0.187158470
     0.080335039  0.746053314  0.187664636
     0.340352683  0.752092406  0.185250815
     0.213254053  0.642210540  0.180934393
     0.249695661  0.578860990  0.439905687
     0.239697344  0.693114544  0.444082732
     0.121837307  0.844914051  0.437158054
     0.496048427  0.830333990  0.437664869
     0.002095808  0.590356340  0.435250866
     0.392206637  0.963249745  0.430934438
     0.171137711  0.500304899  0.310094334
     0.056887746  0.510302909  0.305917391
     0.405086251  0.628167678  0.312841530
     0.419664961  0.753946686  0.312335364
     0.659647317  0.747907594  0.814749185
     0.786745947  0.857789460  0.819065607

  ion indices of the primitive-cell ions
   primitive index   ion index
                 1           1
                 2           2
                 3           3
                 4           4
                 5           5
                 6           6
                 7           7
                 8           8
                 9           9
                10          10
                11          11
                12          12
                13          13
                14          14
                15          15
                16          16
                17          17
                18          18
                19          19
                20          20
                21          21
                22          22
                23          23
                24          24
                25          25
                26          26
                27          27
                28          28
                29          29
                30          30
                31          31
                32          32
                33          33
                34          34
                35          35
                36          36
                37          37
                38          38
                39          39
                40          40
                41          41
                42          42
                43          43
                44          44
                45          45
                46          46
                47          47
                48          48
                49          49
                50          50
                51          51
                52          52
                53          53
                54          54
                55          55
                56          56
                57          57
                58          58
                59          59
                60          60
                61          61
                62          62
                63          63
                64          64
                65          65
                66          66
                67          67
                68          68
                69          69
                70          70
                71          71
                72          72
                73          73
                74          74
                75          75
                76          76
                77          77
                78          78
                79          79
                80          80
                81          81
                82          82
                83          83
                84          84
                85          85
                86          86
                87          87
                88          88
                89          89
                90          90
                91          91
                92          92
                93          93
                94          94
                95          95
                96          96
                97          97
                98          98
                99          99
               100         100
               101         101
               102         102
               103         103
               104         104
               105         105
               106         106
               107         107
               108         108
               109         109
               110         110
               111         111
               112         112
               113         113
               114         114
               115         115
               116         116
               117         117
               118         118
               119         119
               120         120
               121         121
               122         122
               123         123
               124         124
               125         125
               126         126
               127         127
               128         128
               129         129
               130         130
               131         131
               132         132
               133         133
               134         134
               135         135
               136         136
               137         137
               138         138
               139         139
               140         140
               141         141
               142         142
               143         143
               144         144
               145         145
               146         146
               147         147
               148         148
               149         149
               150         150
               151         151
               152         152
               153         153
               154         154
               155         155
               156         156
               157         157
               158         158
               159         159
               160         160
               161         161
               162         162
               163         163
               164         164
               165         165
               166         166
               167         167
               168         168
               169         169
               170         170
               171         171
               172         172
               173         173
               174         174
               175         175
               176         176
               177         177
               178         178
               179         179
               180         180
               181         181
               182         182
               183         183
               184         184
               185         185
               186         186
               187         187
               188         188
               189         189
               190         190
               191         191
               192         192

----------------------------------------------------------------------------------------



 KPOINTS: Automatically generated mesh            

Automatic generation of k-mesh.
Space group operators:
 irot       det(A)        alpha          n_x          n_y          n_z        tau_x        tau_y        tau_z
    1     1.000000     0.000000     1.000000     0.000000     0.000000     0.000000     0.000000     0.000000
 
 Subroutine IBZKPT returns following result:
 ===========================================
 
 Found      1 irreducible k-points:
 
 Following reciprocal coordinates:
            Coordinates               Weight
  0.000000  0.000000  0.000000      1.000000
 
 Following cartesian coordinates:
            Coordinates               Weight
  0.000000  0.000000  0.000000      1.000000
 


--------------------------------------------------------------------------------------------------------




 Dimension of arrays:
   k-points           NKPTS =      1   k-points in BZ     NKDIM =      1   number of bands    NBANDS=    194
   number of dos      NEDOS =    301   number of ions     NIONS =    192
   non local maximal  LDIM  =      5   non local SUM 2l+1 LMDIM =     13
   total plane-waves  NPLWV =  37632
   max r-space proj   IRMAX =   1923   max aug-charges    IRDMAX=    634
   dimension x,y,z NGX =    28 NGY =   28 NGZ =   48
   dimension x,y,z NGXF=    48 NGYF=   48 NGZF=   80
   support grid    NGXF=    48 NGYF=   48 NGZF=   80
   ions per type =             192
   NGX,Y,Z   is equivalent  to a cutoff of   7.48,  7.48,  7.19 a.u.
   NGXF,Y,Z  is equivalent  to a cutoff of  12.82, 12.82, 11.98 a.u.

 SYSTEM =  unknown system                          
 POSCAR =  222                                     

 Startparameter for this run:
   NWRITE =      2    write-flag & timer
   PREC   = f         normal or accurate (medium, high low for compatibility)
   ISTART =      0    job   : 0-new  1-cont  2-samecut
   ICHARG =      2    charge: 1-file 2-atom 10-const
   ISPIN  =      1    spin polarized calculation?
   LNONCOLLINEAR =      F non collinear calculations
   LSORBIT =      F    spin-orbit coupling
   INIWAV =      1    electr: 0-lowe 1-rand  2-diag
   LASPH  =      F    aspherical Exc in radial PAW
   METAGGA=      F    non-selfconsistent MetaGGA calc.

 Electronic Relaxation 1
   ENCUT  =  300.0 eV  22.05 Ry    4.70 a.u.   8.79  8.79 15.67*2*pi/ulx,y,z
   ENINI  =  300.0     initial cutoff
   ENAUG  =  500.0 eV  augmentation charge cutoff
   NELM   =     60;   NELMIN=  2; NELMDL=-12     # of ELM steps 
   EDIFF  = 0.1E-03   stopping-criterion for ELM
   LREAL  =      T    real-space projection
   NLSPLINE    = F    spline interpolate recip. space projectors
   LCOMPAT=      F    compatible to vasp.4.4
   GGA_COMPAT  = F    GGA compatible to vasp.4.4-vasp.4.6
   LMAXPAW     = -100 max onsite density
   LMAXMIX     =    2 max onsite mixed and CHGCAR
   VOSKOWN=      0    Vosko Wilk Nusair interpolation
   ROPT   =   -0.00200
 Ionic relaxation
   EDIFFG = 0.1E-02   stopping-criterion for IOM
   NSW    =     50    number of steps for IOM
   NBLOCK =      1;   KBLOCK =     50    inner block; outer block 
   IBRION =      0    ionic relax: 0-MD 1-quasi-New 2-CG
   NFREE  =      0    steps in history (QN), initial steepest desc. (CG)
   ISIF   =      2    stress and relaxation
   IWAVPR =     12    prediction:  0-non 1-charg 2-wave 3-comb
   ISYM   =      0    0-nonsym 1-usesym 2-fastsym
   LCORR  =      T    Harris-Foulkes like correction to forces

   POTIM  = 1.0000    time-step for ionic-motion
   TEIN   =    0.0    initial temperature
   TEBEG  =    0.0;   TEEND  =   0.0 temperature during run
   SMASS  =  -3.00    Nose mass-parameter (am)
   estimated Nose-frequenzy (Omega)   =  0.10E-29 period in steps = 0.63E+46 mass=  -0.885E-27a.u.
   SCALEE = 1.0000    scale energy and forces
   NPACO  =    256;   APACO  = 16.0  distance and # of slots for P.C.
   PSTRESS=    0.0 pullay stress

  Mass of Ions in am
   POMASS =   1.00
  Ionic Valenz
   ZVAL   =   1.00
  Atomic Wigner-Seitz radii
   RWIGS  =  -1.00
  virtual crystal weights 
   VCA    =   1.00
   NELECT =     192.0000    total number of electrons
   NUPDOWN=      -1.0000    fix difference up-down

 DOS related values:
   EMIN   =  10.00;   EMAX   =-10.00  energy-range for DOS
   EFERMI =   0.00
   ISMEAR =     0;   SIGMA  =   0.01  broadening in eV -4-tet -1-fermi 0-gaus

 Electronic relaxation 2 (details)
   IALGO  =     48    algorithm
   LDIAG  =      T    sub-space diagonalisation (order eigenvalues)
   LSUBROT=      F    optimize rotation matrix (better conditioning)
   TURBO    =      0    0=normal 1=particle mesh
   IRESTART =      0    0=no restart 2=restart with 2 vectors
   NREBOOT  =      0    no. of reboots
   NMIN     =      0    reboot dimension
   EREF     =   0.00    reference energy to select bands
   IMIX   =      4    mixing-type and parameters
     AMIX     =   0.40;   BMIX     =  1.00
     AMIX_MAG =   1.60;   BMIX_MAG =  1.00
     AMIN     =   0.10
     WC   =   100.;   INIMIX=   1;  MIXPRE=   1;  MAXMIX= -45

 Intra band minimization:
   WEIMIN = 0.0010     energy-eigenvalue tresh-hold
   EBREAK =  0.13E-06  absolut break condition
   DEPER  =   0.30     relativ break condition  

   TIME   =   0.40     timestep for ELM

  volume/ion in A,a.u.               =       1.94        13.09
  Fermi-wavevector in a.u.,A,eV,Ry     =   1.312672  2.480590 23.444296  1.723107
  Thomas-Fermi vector in A             =   2.443048

 Write flags
   LWAVE        =      T    write WAVECAR
   LDOWNSAMPLE  =      F    k-point downsampling of WAVECAR
   LCHARG       =      T    write CHGCAR
   LVTOT        =      F    write LOCPOT, total local potential
   LVHAR        =      F    write LOCPOT, Hartree potential only
   LELF         =      F    write electronic localiz. function (ELF)
   LORBIT       =      5    0 simple, 1 ext, 2 COOP (PROOUT), +10 PAW based schemes


 Dipole corrections
   LMONO  =      F    monopole corrections only (constant potential shift)
   LDIPOL =      F    correct potential (dipole corrections)
   IDIPOL =      0    1-x, 2-y, 3-z, 4-all directions 
   EPSILON=  1.0000000 bulk dielectric constant

 Exchange correlation treatment:
   GGA     =    --    GGA type
   LEXCH   =     8    internal setting for exchange type
   VOSKOWN=      0    Vosko Wilk Nusair interpolation
   LHFCALC =     F    Hartree Fock is set to
   LHFONE  =     F    Hartree Fock one center treatment
   AEXX    =    0.0000 exact exchange contribution

 Linear response parameters
   LEPSILON=     F    determine dielectric tensor
   LRPA    =     F    only Hartree local field effects (RPA)
   LNABLA  =     F    use nabla operator in PAW spheres
   LVEL    =     F    velocity operator in full k-point grid
   LINTERFAST=   F  fast interpolation
   KINTER  =     0    interpolate to denser k-point grid
   CSHIFT  =0.1000    complex shift for real part using Kramers Kronig
   OMEGAMAX=  -1.0    maximum frequency
   DEG_THRESHOLD= 0.2000000E-02 threshold for treating states as degnerate
   RTIME   =   -0.100 relaxation time in fs
  (WPLASMAI=    0.000 imaginary part of plasma frequency in eV, 0.658/RTIME)
   DFIELD  = 0.0000000 0.0000000 0.0000000 field for delta impulse in time

 Orbital magnetization related:
   ORBITALMAG=     F  switch on orbital magnetization
   LCHIMAG   =     F  perturbation theory with respect to B field
   DQ        =  0.001000  dq finite difference perturbation B field
   LLRAUG    =     F  two centre corrections for induced B field

 Set total kinetic energy density
    TAU0  =     0.0000000



--------------------------------------------------------------------------------------------------------


 molecular dynamics for ions
   using a microcanonical ensemble
 charge density and potential will be updated during run
 non-spin polarized calculation
 RMM-DIIS sequential band-by-band
 perform sub-space diagonalisation
    before iterative eigenvector-optimisation
 modified Broyden-mixing scheme, WC =      100.0
 initial mixing is a Kerker type mixing with AMIX =  0.4000 and BMIX =      1.0000
 Hartree-type preconditioning will be used
 using additional bands           98
 real space projection scheme for non local part
 calculate Harris-corrections to forces   (improved forces if not selfconsistent)
 use gradient corrections 
 use of overlap-Matrix (Vanderbilt PP)
 Gauss-broadening in eV      SIGMA  =   0.01


--------------------------------------------------------------------------------------------------------


  energy-cutoff  :      300.00
  volume of cell :      372.44
      direct lattice vectors                 reciprocal lattice vectors
     6.223215225  0.000000000  0.000000000     0.160688641  0.092530570 -0.000000000
    -3.105484316  5.392985881  0.000000000     0.000000000  0.185426037  0.000000000
     0.000000000  0.000000000 11.097194000     0.000000000 -0.000000000  0.090112870

  length of vectors
     6.223215225  6.223208944 11.097194000     0.185425850  0.185426037  0.090112870



 k-points in units of 2pi/SCALE and weight: Automatically generated mesh            
   0.00000000  0.00000000  0.00000000       1.000

 k-points in reciprocal lattice and weights: Automatically generated mesh            
   0.00000000  0.00000000  0.00000000       1.000

 position of ions in fractional coordinates (direct lattice) 
   0.25030434  0.42113901  0.06009431
   0.87816269  0.15508595  0.56284195
   0.50395157  0.16966601  0.56233513
   0.99790419  0.40964366  0.56474913
   0.60779336  0.03675026  0.56906556
   0.82886229  0.49969510  0.68990567
   0.94311225  0.48969709  0.69408261
   0.59491375  0.37183232  0.68715847
   0.58033504  0.24605331  0.68766464
   0.84035268  0.25209241  0.68525081
   0.76030266  0.30688546  0.55591727
   0.71325405  0.14221054  0.68093439
   0.73969734  0.19311454  0.94408273
   0.62183731  0.34491405  0.93715805
   0.99604843  0.33033399  0.93766487
   0.50209581  0.09035634  0.93525087
   0.89220664  0.46324974  0.93093444
   0.67113771  0.00030490  0.81009433
   0.55688775  0.01030291  0.80591739
   0.90508625  0.12816768  0.81284153
   0.91966496  0.25394669  0.81233536
   0.74969566  0.07886099  0.93990569
   0.65964732  0.24790759  0.81474919
   0.75030434  0.42113901  0.56009431
   0.65964732  0.24790759  0.31474919
   0.87816269  0.15508595  0.06284195
   0.50395157  0.16966601  0.06233513
   0.99790419  0.40964366  0.06474913
   0.60779336  0.03675026  0.06906556
   0.82886229  0.49969510  0.18990567
   0.94311225  0.48969709  0.19408261
   0.59491375  0.37183232  0.18715847
   0.58033504  0.24605331  0.18766464
   0.84035268  0.25209241  0.18525081
   0.78674595  0.35778946  0.31906561
   0.71325405  0.14221054  0.18093439
   0.73969734  0.19311454  0.44408273
   0.62183731  0.34491405  0.43715805
   0.99604843  0.33033399  0.43766487
   0.50209581  0.09035634  0.43525087
   0.89220664  0.46324974  0.43093444
   0.67113771  0.00030490  0.31009433
   0.55688775  0.01030291  0.30591739
   0.90508625  0.12816768  0.31284153
   0.91966496  0.25394669  0.31233536
   0.74969566  0.07886099  0.43990569
   0.76030266  0.30688546  0.05591727
   0.78674595  0.35778946  0.81906561
   0.76030266  0.80688546  0.05591727
   0.87816269  0.65508595  0.56284195
   0.50395157  0.66966601  0.56233513
   0.99790419  0.90964366  0.56474913
   0.60779336  0.53675026  0.56906556
   0.82886229  0.99969510  0.68990567
   0.94311225  0.98969709  0.69408261
   0.59491375  0.87183232  0.68715847
   0.58033504  0.74605331  0.68766464
   0.84035268  0.75209241  0.68525081
   0.76030266  0.80688546  0.55591727
   0.71325405  0.64221054  0.68093439
   0.73969734  0.69311454  0.94408273
   0.62183731  0.84491405  0.93715805
   0.99604843  0.83033399  0.93766487
   0.50209581  0.59035634  0.93525087
   0.89220664  0.96324974  0.93093444
   0.67113771  0.50030490  0.81009433
   0.55688775  0.51030291  0.80591739
   0.90508625  0.62816768  0.81284153
   0.91966496  0.75394669  0.81233536
   0.74969566  0.57886099  0.93990569
   0.75030434  0.92113901  0.06009431
   0.75030434  0.92113901  0.56009431
   0.65964732  0.74790759  0.31474919
   0.87816269  0.65508595  0.06284195
   0.50395157  0.66966601  0.06233513
   0.99790419  0.90964366  0.06474913
   0.60779336  0.53675026  0.06906556
   0.82886229  0.99969510  0.18990567
   0.94311225  0.98969709  0.19408261
   0.59491375  0.87183232  0.18715847
   0.58033504  0.74605331  0.18766464
   0.84035268  0.75209241  0.18525081
   0.78674595  0.85778946  0.31906561
   0.71325405  0.64221054  0.18093439
   0.73969734  0.69311454  0.44408273
   0.62183731  0.84491405  0.43715805
   0.99604843  0.83033399  0.43766487
   0.50209581  0.59035634  0.43525087
   0.89220664  0.96324974  0.43093444
   0.67113771  0.50030490  0.31009433
   0.55688775  0.51030291  0.30591739
   0.90508625  0.62816768  0.31284153
   0.91966496  0.75394669  0.31233536
   0.74969566  0.57886099  0.43990569
   0.75030434  0.42113901  0.06009431
   0.28674595  0.85778946  0.81906561
   0.15964732  0.74790759  0.81474919
   0.26030266  0.30688546  0.55591727
   0.37816269  0.15508595  0.56284195
   0.00395157  0.16966601  0.56233513
   0.49790419  0.40964366  0.56474913
   0.10779336  0.03675026  0.56906556
   0.32886229  0.49969510  0.68990567
   0.44311225  0.48969709  0.69408261
   0.09491375  0.37183232  0.68715847
   0.08033504  0.24605331  0.68766464
   0.25030434  0.42113901  0.56009431
   0.34035268  0.25209241  0.68525081
   0.24969566  0.07886099  0.93990569
   0.23969734  0.19311454  0.94408273
   0.12183731  0.34491405  0.93715805
   0.49604843  0.33033399  0.93766487
   0.00209581  0.09035634  0.93525087
   0.39220664  0.46324974  0.93093444
   0.17113771  0.00030490  0.81009433
   0.05688775  0.01030291  0.80591739
   0.40508625  0.12816768  0.81284153
   0.21325405  0.14221054  0.68093439
   0.41966496  0.25394669  0.81233536
   0.28674595  0.35778946  0.31906561
   0.41966496  0.25394669  0.31233536
   0.26030266  0.30688546  0.05591727
   0.37816269  0.15508595  0.06284195
   0.00395157  0.16966601  0.06233513
   0.49790419  0.40964366  0.06474913
   0.10779336  0.03675026  0.06906556
   0.32886229  0.49969510  0.18990567
   0.44311225  0.48969709  0.19408261
   0.09491375  0.37183232  0.18715847
   0.08033504  0.24605331  0.18766464
   0.15964732  0.24790759  0.31474919
   0.34035268  0.25209241  0.18525081
   0.24969566  0.07886099  0.43990569
   0.23969734  0.19311454  0.44408273
   0.12183731  0.34491405  0.43715805
   0.49604843  0.33033399  0.43766487
   0.00209581  0.09035634  0.43525087
   0.39220664  0.46324974  0.43093444
   0.17113771  0.00030490  0.31009433
   0.05688775  0.01030291  0.30591739
   0.40508625  0.12816768  0.31284153
   0.21325405  0.14221054  0.18093439
   0.15964732  0.24790759  0.81474919
   0.28674595  0.35778946  0.81906561
   0.25030434  0.92113901  0.06009431
   0.37816269  0.65508595  0.56284195
   0.00395157  0.66966601  0.56233513
   0.49790419  0.90964366  0.56474913
   0.10779336  0.53675026  0.56906556
   0.32886229  0.99969510  0.68990567
   0.44311225  0.98969709  0.69408261
   0.09491375  0.87183232  0.68715847
   0.08033504  0.74605331  0.68766464
   0.34035268  0.75209241  0.68525081
   0.26030266  0.80688546  0.55591727
   0.21325405  0.64221054  0.68093439
   0.23969734  0.69311454  0.94408273
   0.12183731  0.84491405  0.93715805
   0.49604843  0.83033399  0.93766487
   0.00209581  0.59035634  0.93525087
   0.39220664  0.96324974  0.93093444
   0.17113771  0.50030490  0.81009433
   0.05688775  0.51030291  0.80591739
   0.40508625  0.62816768  0.81284153
   0.41966496  0.75394669  0.81233536
   0.24969566  0.57886099  0.93990569
   0.25030434  0.92113901  0.56009431
   0.28674595  0.85778946  0.31906561
   0.15964732  0.74790759  0.31474919
   0.26030266  0.80688546  0.05591727
   0.37816269  0.65508595  0.06284195
   0.00395157  0.66966601  0.06233513
   0.49790419  0.90964366  0.06474913
   0.10779336  0.53675026  0.06906556
   0.32886229  0.99969510  0.18990567
   0.44311225  0.98969709  0.19408261
   0.09491375  0.87183232  0.18715847
   0.08033504  0.74605331  0.18766464
   0.34035268  0.75209241  0.18525081
   0.21325405  0.64221054  0.18093439
   0.24969566  0.57886099  0.43990569
   0.23969734  0.69311454  0.44408273
   0.12183731  0.84491405  0.43715805
   0.49604843  0.83033399  0.43766487
   0.00209581  0.59035634  0.43525087
   0.39220664  0.96324974  0.43093444
   0.17113771  0.50030490  0.31009433
   0.05688775  0.51030291  0.30591739
   0.40508625  0.62816768  0.31284153
   0.41966496  0.75394669  0.31233536
   0.65964732  0.74790759  0.81474919
   0.78674595  0.85778946  0.81906561

 position of ions in cartesian coordinates  (Angst):
   0.24985718  2.27119673  0.66687825
   4.98337846  0.83637633  6.24596626
   2.60930397  0.91500639  6.24034204
   4.93803060  2.20920247  6.26713070
   3.66830157  0.19819361  6.31503094
   3.60639312  2.69484863  7.65601702
   4.34844390  2.64092950  7.70236936
   2.54755686  2.00528646  7.62553085
   2.84743514  1.32696205  7.63114787
   4.44682660  1.35953079  7.60436123
   3.77849910  1.65502893  6.16912178
   3.99710088  0.76693944  7.55646106
   4.00358158  1.04146401 10.47666922
   2.79870222  1.86011661 10.39982474
   5.17277671  1.78148655 10.40544896
   2.84405008  0.48729047 10.37866030
   4.11377911  2.49829933 10.33076005
   4.17568756  0.00164431  8.98977398
   3.43363678  0.05556344  8.94342164
   5.23452382  0.69120648  9.02026014
   4.93464554  1.36953089  9.01464313
   4.42061588  0.42529621 10.43031575
   3.33525408  1.33696215  9.04142977
   3.36146480  2.27119673  6.21547525
   3.33525408  1.33696215  3.49283277
   4.98337846  0.83637633  0.69736926
   2.60930397  0.91500639  0.69174504
   4.93803060  2.20920247  0.71853370
   3.66830157  0.19819361  0.76643394
   3.60639312  2.69484863  2.10742002
   4.34844390  2.64092950  2.15377236
   2.54755686  2.00528646  2.07693385
   2.84743514  1.32696205  2.08255087
   4.44682660  1.35953079  2.05576423
   3.78497980  1.92955350  3.54073294
   3.99710088  0.76693944  2.00786406
   4.00358158  1.04146401  4.92807222
   2.79870222  1.86011661  4.85122774
   5.17277671  1.78148655  4.85685196
   2.84405008  0.48729047  4.83006330
   4.11377911  2.49829933  4.78216306
   4.17568756  0.00164431  3.44117698
   3.43363678  0.05556344  3.39482464
   5.23452382  0.69120648  3.47166314
   4.93464554  1.36953089  3.46604613
   4.42061588  0.42529621  4.88171875
   3.77849910  1.65502893  0.62052478
   3.78497980  1.92955350  9.08932994
   2.22575694  4.35152187  0.62052478
   3.43063630  3.53286927  6.24596626
   1.05656181  3.61149934  6.24034204
   3.38528844  4.90569542  6.26713070
   2.11555941  2.89468655  6.31503094
   2.05365096  5.39134157  7.65601702
   2.79570175  5.33742244  7.70236936
   0.99481470  4.70177940  7.62553085
   1.29469298  4.02345499  7.63114787
   2.89408444  4.05602373  7.60436123
   2.22575694  4.35152187  6.16912178
   2.44435872  3.46343238  7.55646106
   2.45083943  3.73795695 10.47666922
   1.24596006  4.55660955 10.39982474
   3.62003455  4.47797949 10.40544896
   1.29130792  3.18378341 10.37866030
   2.56103695  5.19479227 10.33076005
   2.62294540  2.69813725  8.98977398
   1.88089462  2.75205638  8.94342164
   3.68178166  3.38769942  9.02026014
   3.38190338  4.06602383  9.01464313
   2.86787372  3.12178915 10.43031575
   1.80872264  4.96768967  0.66687825
   1.80872264  4.96768967  6.21547525
   1.78251192  4.03345509  3.49283277
   3.43063630  3.53286927  0.69736926
   1.05656181  3.61149934  0.69174504
   3.38528844  4.90569542  0.71853370
   2.11555941  2.89468655  0.76643394
   2.05365096  5.39134157  2.10742002
   2.79570175  5.33742244  2.15377236
   0.99481470  4.70177940  2.07693385
   1.29469298  4.02345499  2.08255087
   2.89408444  4.05602373  2.05576423
   2.23223764  4.62604645  3.54073294
   2.44435872  3.46343238  2.00786406
   2.45083943  3.73795695  4.92807222
   1.24596006  4.55660955  4.85122774
   3.62003455  4.47797949  4.85685196
   1.29130792  3.18378341  4.83006330
   2.56103695  5.19479227  4.78216306
   2.62294540  2.69813725  3.44117698
   1.88089462  2.75205638  3.39482464
   3.68178166  3.38769942  3.47166314
   3.38190338  4.06602383  3.46604613
   2.86787372  3.12178915  4.88171875
   3.36146480  2.27119673  0.66687825
  -0.87936997  4.62604645  9.08932994
  -1.32909569  4.03345509  9.04142977
   0.66689148  1.65502893  6.16912178
   1.87177085  0.83637633  6.24596626
  -0.50230365  0.91500639  6.24034204
   1.82642298  2.20920247  6.26713070
   0.55669396  0.19819361  6.31503094
   0.49478550  2.69484863  7.65601702
   1.23683629  2.64092950  7.70236936
  -0.56405075  2.00528646  7.62553085
  -0.26417247  1.32696205  7.63114787
   0.24985718  2.27119673  6.21547525
   1.33521898  1.35953079  7.60436123
   1.30900827  0.42529621 10.43031575
   0.89197397  1.04146401 10.47666922
  -0.31290539  1.86011661 10.39982474
   2.06116910  1.78148655 10.40544896
  -0.26755753  0.48729047 10.37866030
   1.00217150  2.49829933 10.33076005
   1.06407995  0.00164431  8.98977398
   0.32202916  0.05556344  8.94342164
   2.12291621  0.69120648  9.02026014
   0.88549327  0.76693944  7.55646106
   1.82303793  1.36953089  9.01464313
   0.67337219  1.92955350  3.54073294
   1.82303793  1.36953089  3.46604613
   0.66689148  1.65502893  0.62052478
   1.87177085  0.83637633  0.69736926
  -0.50230365  0.91500639  0.69174504
   1.82642298  2.20920247  0.71853370
   0.55669396  0.19819361  0.76643394
   0.49478550  2.69484863  2.10742002
   1.23683629  2.64092950  2.15377236
  -0.56405075  2.00528646  2.07693385
  -0.26417247  1.32696205  2.08255087
   0.22364647  1.33696215  3.49283277
   1.33521898  1.35953079  2.05576423
   1.30900827  0.42529621  4.88171875
   0.89197397  1.04146401  4.92807222
  -0.31290539  1.86011661  4.85122774
   2.06116910  1.78148655  4.85685196
  -0.26755753  0.48729047  4.83006330
   1.00217150  2.49829933  4.78216306
   1.06407995  0.00164431  3.44117698
   0.32202916  0.05556344  3.39482464
   2.12291621  0.69120648  3.47166314
   0.88549327  0.76693944  2.00786406
   0.22364647  1.33696215  9.04142977
   0.67337219  1.92955350  9.08932994
  -1.30288497  4.96768967  0.66687825
   0.31902869  3.53286927  6.24596626
  -2.05504580  3.61149934  6.24034204
   0.27368083  4.90569542  6.26713070
  -0.99604820  2.89468655  6.31503094
  -1.05795665  5.39134157  7.65601702
  -0.31590587  5.33742244  7.70236936
  -2.11679291  4.70177940  7.62553085
  -1.81691463  4.02345499  7.63114787
  -0.21752317  4.05602373  7.60436123
  -0.88585067  4.35152187  6.16912178
  -0.66724889  3.46343238  7.55646106
  -0.66076819  3.73795695 10.47666922
  -1.86564755  4.55660955 10.39982474
   0.50842694  4.47797949 10.40544896
  -1.82029969  3.18378341 10.37866030
  -0.55057066  5.19479227 10.33076005
  -0.48866221  2.69813725  8.98977398
  -1.23071300  2.75205638  8.94342164
   0.57017405  3.38769942  9.02026014
   0.27029577  4.06602383  9.01464313
  -0.24373389  3.12178915 10.43031575
  -1.30288497  4.96768967  6.21547525
  -0.87936997  4.62604645  3.54073294
  -1.32909569  4.03345509  3.49283277
  -0.88585067  4.35152187  0.62052478
   0.31902869  3.53286927  0.69736926
  -2.05504580  3.61149934  0.69174504
   0.27368083  4.90569542  0.71853370
  -0.99604820  2.89468655  0.76643394
  -1.05795665  5.39134157  2.10742002
  -0.31590587  5.33742244  2.15377236
  -2.11679291  4.70177940  2.07693385
  -1.81691463  4.02345499  2.08255087
  -0.21752317  4.05602373  2.05576423
  -0.66724889  3.46343238  2.00786406
  -0.24373389  3.12178915  4.88171875
  -0.66076819  3.73795695  4.92807222
  -1.86564755  4.55660955  4.85122774
   0.50842694  4.47797949  4.85685196
  -1.82029969  3.18378341  4.83006330
  -0.55057066  5.19479227  4.78216306
  -0.48866221  2.69813725  3.44117698
  -1.23071300  2.75205638  3.39482464
   0.57017405  3.38769942  3.47166314
   0.27029577  4.06602383  3.46604613
   1.78251192  4.03345509  9.04142977
   2.23223764  4.62604645  9.08932994



--------------------------------------------------------------------------------------------------------


 use parallel FFT for orbitals z direction half grid
 k-point   1 :   0.0000 0.0000 0.0000  plane waves:    2193

 maximum and minimum number of plane-waves per node :      1097     1096

 maximum number of plane-waves:      2193
 maximum index in each direction: 
   IXMAX=    8   IYMAX=    8   IZMAX=   15
   IXMIN=   -8   IYMIN=   -8   IZMIN=    0


 real space projection operators:
  total allocation   :      35392.50 KBytes
  max/ min on nodes  :      17728.75      17663.75


 parallel 3D FFT for wavefunctions:
    minimum data exchange during FFTs selected (reduces bandwidth)
 parallel 3D FFT for charge:
    minimum data exchange during FFTs selected (reduces bandwidth)


  Atomic solution for: H  (DFT)
 -------------------------
  1S         -6.49308748

 Cropping the radial grids:
  Typ   RC    r(nmax)   RCRHOCUT
   1     T    0.8002   0.1000E-04

  ESEMICORE =    0.0000


 total amount of memory used by VASP MPI-rank0    59890. kBytes
=======================================================================

   base      :      30000. kBytes
   nonlr-proj:      21785. kBytes
   fftplans  :       2037. kBytes
   grid      :       3007. kBytes
   one-center:        389. kBytes
   wavefun   :       2672. kBytes

     INWAV:  cpu time    0.0000: real time    0.0001
 Broyden mixing: mesh for mixing (old mesh)
   NGX = 17   NGY = 17   NGZ = 31
  (NGX  = 48   NGY  = 48   NGZ  = 80)
  gives a total of   8959 points

 initial charge density was supplied:
 charge density of overlapping atoms calculated
 number of electron     192.0000000 magnetization 
 keeping initial charge density in first step


--------------------------------------------------------------------------------------------------------


 Maximum index for non-local projection operator          915
 Maximum index for augmentation-charges          114 (set IRDMAX)


--------------------------------------------------------------------------------------------------------


 First call to EWALD:  gamma=   0.246
 Maximum number of real-space cells 4x 4x 2
 Maximum number of reciprocal cells 2x 2x 4

    FEWALD:  cpu time    0.1061: real time    0.1061


--------------------------------------- Iteration      1(   1)  ---------------------------------------


    POTLOK:  cpu time    0.0221: real time    0.0271
    SETDIJ:  cpu time    0.0420: real time    0.0420
    EDDIAG:  cpu time    0.0592: real time    0.0594
  RMM-DIIS:  cpu time    0.3308: real time    0.3308
    ORTHCH:  cpu time    0.0096: real time    0.0096
       DOS:  cpu time    0.0002: real time    0.0003
    --------------------------------------------
      LOOP:  cpu time    0.4639: real time    0.4691

 eigenvalue-minimisations  :   194
 total energy-change (2. order) : 0.1255574E+04  (-0.4398358E+04)
 number of electron     192.0000000 magnetization 
 augmentation part      192.0000000 magnetization 

 Free energy of the ion-electron system (eV)
  ---------------------------------------------------
  alpha Z        PSCENC =       241.47983536
  Ewald energy   TEWEN  =     -2856.76723081
  -Hartree energ DENC   =       -56.16610196
  -exchange      EXHF   =         0.00000000
  -V(xc)+E(xc)   XCENC  =       596.97761434
  PAW double counting   =       409.52670573     -411.43774274
  entropy T*S    EENTRO =        -0.01125477
  eigenvalues    EBANDS =       951.77554944
  atomic energy  EATOM  =      2380.19640632
  Solvation  Ediel_sol  =         0.00000000
  ---------------------------------------------------
  free energy    TOTEN  =      1255.57378091 eV

  energy without entropy =     1255.58503568  energy(sigma->0) =     1255.57940829


--------------------------------------------------------------------------------------------------------




--------------------------------------- Iteration      1(   2)  ---------------------------------------


    EDDIAG:  cpu time    0.0580: real time    0.0581
  RMM-DIIS:  cpu time    0.3183: real time    0.3195
    ORTHCH:  cpu time    0.0096: real time    0.0096
       DOS:  cpu time    0.0001: real time    0.0002
    --------------------------------------------
      LOOP:  cpu time    0.3860: real time    0.3874

 eigenvalue-minimisations  :   194
 total energy-change (2. order) :-0.1099239E+04  (-0.9728437E+03)
 number of electron     192.0000000 magnetization 
 augmentation part      192.0000000 magnetization 

 Free energy of the ion-electron system (eV)
  ---------------------------------------------------
  alpha Z        PSCENC =       241.47983536
  Ewald energy   TEWEN  =     -2856.76723081
  -Hartree energ DENC   =       -56.16610196
  -exchange      EXHF   =         0.00000000
  -V(xc)+E(xc)   XCENC  =       596.97761434
  PAW double counting   =       409.52670573     -411.43774274
  entropy T*S    EENTRO =        -0.00000000
  eigenvalues    EBANDS =      -147.47451593
  atomic energy  EATOM  =      2380.19640632
  Solvation  Ediel_sol  =         0.00000000
  ---------------------------------------------------
  free energy    TOTEN  =       156.33497031 eV

  energy without entropy =      156.33497031  energy(sigma->0) =      156.33497031


--------------------------------------------------------------------------------------------------------




--------------------------------------- Iteration      1(   3)  ---------------------------------------


    EDDIAG:  cpu time    0.0578: real time    0.0578
  RMM-DIIS:  cpu time    0.3234: real time    0.3246
    ORTHCH:  cpu time    0.0096: real time    0.0096
       DOS:  cpu time    0.0001: real time    0.0002
    --------------------------------------------
      LOOP:  cpu time    0.3909: real time    0.3923

 eigenvalue-minimisations  :   194
 total energy-change (2. order) :-0.3948708E+03  (-0.3347457E+03)
 number of electron     192.0000000 magnetization 
 augmentation part      192.0000000 magnetization 

 Free energy of the ion-electron system (eV)
  ---------------------------------------------------
  alpha Z        PSCENC =       241.47983536
  Ewald energy   TEWEN  =     -2856.76723081
  -Hartree energ DENC   =       -56.16610196
  -exchange      EXHF   =         0.00000000
  -V(xc)+E(xc)   XCENC  =       596.97761434
  PAW double counting   =       409.52670573     -411.43774274
  entropy T*S    EENTRO =        -0.00000000
  eigenvalues    EBANDS =      -542.34532385
  atomic energy  EATOM  =      2380.19640632
  Solvation  Ediel_sol  =         0.00000000
  ---------------------------------------------------
  free energy    TOTEN  =      -238.53583761 eV

  energy without entropy =     -238.53583761  energy(sigma->0) =     -238.53583761


--------------------------------------------------------------------------------------------------------




--------------------------------------- Iteration      1(   4)  ---------------------------------------


    EDDIAG:  cpu time    0.0577: real time    0.0579
  RMM-DIIS:  cpu time    0.3288: real time    0.3296
    ORTHCH:  cpu time    0.0096: real time    0.0096
       DOS:  cpu time    0.0002: real time    0.0003
    --------------------------------------------
      LOOP:  cpu time    0.3963: real time    0.3974

 eigenvalue-minimisations  :   194
 total energy-change (2. order) :-0.1641445E+03  (-0.8564635E+02)
 number of electron     192.0000000 magnetization 
 augmentation part      192.0000000 magnetization 

 Free energy of the ion-electron system (eV)
  ---------------------------------------------------
  alpha Z        PSCENC =       241.47983536
  Ewald energy   TEWEN  =     -2856.76723081
  -Hartree energ DENC   =       -56.16610196
  -exchange      EXHF   =         0.00000000
  -V(xc)+E(xc)   XCENC  =       596.97761434
  PAW double counting   =       409.52670573     -411.43774274
  entropy T*S    EENTRO =        -0.00991874
  eigenvalues    EBANDS =      -706.47985893
  atomic energy  EATOM  =      2380.19640632
  Solvation  Ediel_sol  =         0.00000000
  ---------------------------------------------------
  free energy    TOTEN  =      -402.68029143 eV

  energy without entropy =     -402.67037269  energy(sigma->0) =     -402.67533206


--------------------------------------------------------------------------------------------------------




--------------------------------------- Iteration      1(   5)  ---------------------------------------


    EDDIAG:  cpu time    0.0576: real time    0.0577
  RMM-DIIS:  cpu time    0.3247: real time    0.3251
    ORTHCH:  cpu time    0.0097: real time    0.0097
       DOS:  cpu time    0.0001: real time    0.0002
    --------------------------------------------
      LOOP:  cpu time    0.3921: real time    0.3927

 eigenvalue-minimisations  :   194
 total energy-change (2. order) :-0.3457391E+02  (-0.1361301E+02)
 number of electron     192.0000000 magnetization 
 augmentation part      192.0000000 magnetization 

 Free energy of the ion-electron system (eV)
  ---------------------------------------------------
  alpha Z        PSCENC =       241.47983536
  Ewald energy   TEWEN  =     -2856.76723081
  -Hartree energ DENC   =       -56.16610196
  -exchange      EXHF   =         0.00000000
  -V(xc)+E(xc)   XCENC  =       596.97761434
  PAW double counting   =       409.52670573     -411.43774274
  entropy T*S    EENTRO =        -0.00000000
  eigenvalues    EBANDS =      -741.06368957
  atomic energy  EATOM  =      2380.19640632
  Solvation  Ediel_sol  =         0.00000000
  ---------------------------------------------------
  free energy    TOTEN  =      -437.25420333 eV

  energy without entropy =     -437.25420333  energy(sigma->0) =     -437.25420333


--------------------------------------------------------------------------------------------------------




--------------------------------------- Iteration      1(   6)  ---------------------------------------


    EDDIAG:  cpu time    0.0585: real time    0.0587
  RMM-DIIS:  cpu time    0.3195: real time    0.3221
    ORTHCH:  cpu time    0.0096: real time    0.0096
       DOS:  cpu time    0.0001: real time    0.0002
    --------------------------------------------
      LOOP:  cpu time    0.3877: real time    0.3907

 eigenvalue-minimisations  :   194
 total energy-change (2. order) :-0.2830422E+01  (-0.1589346E+01)
 number of electron     192.0000000 magnetization 
 augmentation part      192.0000000 magnetization 

 Free energy of the ion-electron system (eV)
  ---------------------------------------------------
  alpha Z        PSCENC =       241.47983536
  Ewald energy   TEWEN  =     -2856.76723081
  -Hartree energ DENC   =       -56.16610196
  -exchange      EXHF   =         0.00000000
  -V(xc)+E(xc)   XCENC  =       596.97761434
  PAW double counting   =       409.52670573     -411.43774274
  entropy T*S    EENTRO =        -0.00000000
  eigenvalues    EBANDS =      -743.89411158
  atomic energy  EATOM  =      2380.19640632
  Solvation  Ediel_sol  =         0.00000000
  ---------------------------------------------------
  free energy    TOTEN  =      -440.08462534 eV

  energy without entropy =     -440.08462534  energy(sigma->0) =     -440.08462534


--------------------------------------------------------------------------------------------------------




--------------------------------------- Iteration      1(   7)  ---------------------------------------


    EDDIAG:  cpu time    0.0575: real time    0.0578
  RMM-DIIS:  cpu time    0.3285: real time    0.3293
    ORTHCH:  cpu time    0.0096: real time    0.0096
       DOS:  cpu time    0.0001: real time    0.0001
    --------------------------------------------
      LOOP:  cpu time    0.3956: real time    0.3967

 eigenvalue-minimisations  :   194
 total energy-change (2. order) :-0.2484215E+00  (-0.1826517E+00)
 number of electron     192.0000000 magnetization 
 augmentation part      192.0000000 magnetization 

 Free energy of the ion-electron system (eV)
  ---------------------------------------------------
  alpha Z        PSCENC =       241.47983536
  Ewald energy   TEWEN  =     -2856.76723081
  -Hartree energ DENC   =       -56.16610196
  -exchange      EXHF   =         0.00000000
  -V(xc)+E(xc)   XCENC  =       596.97761434
  PAW double counting   =       409.52670573     -411.43774274
  entropy T*S    EENTRO =        -0.00000000
  eigenvalues    EBANDS =      -744.14253312
  atomic energy  EATOM  =      2380.19640632
  Solvation  Ediel_sol  =         0.00000000
  ---------------------------------------------------
  free energy    TOTEN  =      -440.33304689 eV

  energy without entropy =     -440.33304689  energy(sigma->0) =     -440.33304689


--------------------------------------------------------------------------------------------------------




--------------------------------------- Iteration      1(   8)  ---------------------------------------


    EDDIAG:  cpu time    0.0578: real time    0.0579
  RMM-DIIS:  cpu time    0.3246: real time    0.3253
    ORTHCH:  cpu time    0.0094: real time    0.0101
       DOS:  cpu time    0.0001: real time    0.0002
    --------------------------------------------
      LOOP:  cpu time    0.3919: real time    0.3934

 eigenvalue-minimisations  :   194
 total energy-change (2. order) :-0.2720405E-01  (-0.2154731E-01)
 number of electron     192.0000000 magnetization 
 augmentation part      192.0000000 magnetization 

 Free energy of the ion-electron system (eV)
  ---------------------------------------------------
  alpha Z        PSCENC =       241.47983536
  Ewald energy   TEWEN  =     -2856.76723081
  -Hartree energ DENC   =       -56.16610196
  -exchange      EXHF   =         0.00000000
  -V(xc)+E(xc)   XCENC  =       596.97761434
  PAW double counting   =       409.52670573     -411.43774274
  entropy T*S    EENTRO =        -0.00000000
  eigenvalues    EBANDS =      -744.16973717
  atomic energy  EATOM  =      2380.19640632
  Solvation  Ediel_sol  =         0.00000000
  ---------------------------------------------------
  free energy    TOTEN  =      -440.36025094 eV

  energy without entropy =     -440.36025094  energy(sigma->0) =     -440.36025094


--------------------------------------------------------------------------------------------------------




--------------------------------------- Iteration      1(   9)  ---------------------------------------


    EDDIAG:  cpu time    0.0576: real time    0.0580
  RMM-DIIS:  cpu time    0.5398: real time    0.5410
    ORTHCH:  cpu time    0.0096: real time    0.0096
       DOS:  cpu time    0.0001: real time    0.0001
    --------------------------------------------
      LOOP:  cpu time    0.6071: real time    0.6087

 eigenvalue-minimisations  :   330
 total energy-change (2. order) :-0.2932286E-02  (-0.2597792E-02)
 number of electron     192.0000000 magnetization 
 augmentation part      192.0000000 magnetization 

 Free energy of the ion-electron system (eV)
  ---------------------------------------------------
  alpha Z        PSCENC =       241.47983536
  Ewald energy   TEWEN  =     -2856.76723081
  -Hartree energ DENC   =       -56.16610196
  -exchange      EXHF   =         0.00000000
  -V(xc)+E(xc)   XCENC  =       596.97761434
  PAW double counting   =       409.52670573     -411.43774274
  entropy T*S    EENTRO =        -0.00000000
  eigenvalues    EBANDS =      -744.17266946
  atomic energy  EATOM  =      2380.19640632
  Solvation  Ediel_sol  =         0.00000000
  ---------------------------------------------------
  free energy    TOTEN  =      -440.36318322 eV

  energy without entropy =     -440.36318322  energy(sigma->0) =     -440.36318322


--------------------------------------------------------------------------------------------------------




--------------------------------------- Iteration      1(  10)  ---------------------------------------


    EDDIAG:  cpu time    0.0576: real time    0.0580
  RMM-DIIS:  cpu time    0.5086: real time    0.5115
    ORTHCH:  cpu time    0.0096: real time    0.0096
       DOS:  cpu time    0.0001: real time    0.0001
    --------------------------------------------
      LOOP:  cpu time    0.5759: real time    0.5791

 eigenvalue-minimisations  :   302
 total energy-change (2. order) :-0.4088824E-03  (-0.3845903E-03)
 number of electron     192.0000000 magnetization 
 augmentation part      192.0000000 magnetization 

 Free energy of the ion-electron system (eV)
  ---------------------------------------------------
  alpha Z        PSCENC =       241.47983536
  Ewald energy   TEWEN  =     -2856.76723081
  -Hartree energ DENC   =       -56.16610196
  -exchange      EXHF   =         0.00000000
  -V(xc)+E(xc)   XCENC  =       596.97761434
  PAW double counting   =       409.52670573     -411.43774274
  entropy T*S    EENTRO =        -0.00000000
  eigenvalues    EBANDS =      -744.17307834
  atomic energy  EATOM  =      2380.19640632
  Solvation  Ediel_sol  =         0.00000000
  ---------------------------------------------------
  free energy    TOTEN  =      -440.36359211 eV

  energy without entropy =     -440.36359211  energy(sigma->0) =     -440.36359211


--------------------------------------------------------------------------------------------------------




--------------------------------------- Iteration      1(  11)  ---------------------------------------


    EDDIAG:  cpu time    0.0577: real time    0.0577
  RMM-DIIS:  cpu time    0.4517: real time    0.4528
    ORTHCH:  cpu time    0.0096: real time    0.0096
       DOS:  cpu time    0.0001: real time    0.0001
    --------------------------------------------
      LOOP:  cpu time    0.5191: real time    0.5202

 eigenvalue-minimisations  :   253
 total energy-change (2. order) :-0.4419491E-04  (-0.3828423E-04)
 number of electron     192.0000000 magnetization 
 augmentation part      192.0000000 magnetization 

 Free energy of the ion-electron system (eV)
  ---------------------------------------------------
  alpha Z        PSCENC =       241.47983536
  Ewald energy   TEWEN  =     -2856.76723081
  -Hartree energ DENC   =       -56.16610196
  -exchange      EXHF   =         0.00000000
  -V(xc)+E(xc)   XCENC  =       596.97761434
  PAW double counting   =       409.52670573     -411.43774274
  entropy T*S    EENTRO =        -0.00000000
  eigenvalues    EBANDS =      -744.17312254
  atomic energy  EATOM  =      2380.19640632
  Solvation  Ediel_sol  =         0.00000000
  ---------------------------------------------------
  free energy    TOTEN  =      -440.36363630 eV

  energy without entropy =     -440.36363630  energy(sigma->0) =     -440.36363630


--------------------------------------------------------------------------------------------------------




--------------------------------------- Iteration      1(  12)  ---------------------------------------


    EDDIAG:  cpu time    0.0576: real time    0.0577
  RMM-DIIS:  cpu time    0.4311: real time    0.4330
    ORTHCH:  cpu time    0.0097: real time    0.0097
       DOS:  cpu time    0.0001: real time    0.0001
    CHARGE:  cpu time    0.0153: real time    0.0154
    MIXING:  cpu time    0.0007: real time    0.0007
    --------------------------------------------
      LOOP:  cpu time    0.5145: real time    0.5166

 eigenvalue-minimisations  :   230
 total energy-change (2. order) :-0.6088549E-05  (-0.5868755E-05)
 number of electron     192.0000165 magnetization 
 augmentation part        2.1116158 magnetization 

 Broyden mixing:
  rms(total) = 0.42605E+01    rms(broyden)= 0.42568E+01
  rms(prec ) = 0.46649E+01
  weight for this iteration     100.00

 Free energy of the ion-electron system (eV)
  ---------------------------------------------------
  alpha Z        PSCENC =       241.47983536
  Ewald energy   TEWEN  =     -2856.76723081
  -Hartree energ DENC   =       -56.16610196
  -exchange      EXHF   =         0.00000000
  -V(xc)+E(xc)   XCENC  =       596.97761434
  PAW double counting   =       409.52670573     -411.43774274
  entropy T*S    EENTRO =        -0.00000000
  eigenvalues    EBANDS =      -744.17312863
  atomic energy  EATOM  =      2380.19640632
  Solvation  Ediel_sol  =         0.00000000
  ---------------------------------------------------
  free energy    TOTEN  =      -440.36364239 eV

  energy without entropy =     -440.36364239  energy(sigma->0) =     -440.36364239


--------------------------------------------------------------------------------------------------------




--------------------------------------- Iteration      1(  13)  ---------------------------------------


    POTLOK:  cpu time    0.0182: real time    0.0183
    SETDIJ:  cpu time    0.0420: real time    0.0420
    EDDIAG:  cpu time    0.0582: real time    0.0611
  RMM-DIIS:  cpu time    0.6161: real time    0.6172
    ORTHCH:  cpu time    0.0098: real time    0.0098
       DOS:  cpu time    0.0001: real time    0.0003
    CHARGE:  cpu time    0.0149: real time    0.0151
    MIXING:  cpu time    0.0009: real time    0.0009
    --------------------------------------------
      LOOP:  cpu time    0.7603: real time    0.7648

 eigenvalue-minimisations  :   388
 total energy-change (2. order) : 0.6414669E+01  (-0.1303765E+00)
 number of electron     192.0000157 magnetization 
 augmentation part        2.0989173 magnetization 

 Broyden mixing:
  rms(total) = 0.25437E+01    rms(broyden)= 0.25435E+01
  rms(prec ) = 0.27817E+01
  weight for this iteration     100.00

 eigenvalues of (default mixing * dielectric matrix)
  average eigenvalue GAMMA=   2.4790
  2.4790

 Free energy of the ion-electron system (eV)
  ---------------------------------------------------
  alpha Z        PSCENC =       241.47983536
  Ewald energy   TEWEN  =     -2856.76723081
  -Hartree energ DENC   =      -102.22362241
  -exchange      EXHF   =         0.00000000
  -V(xc)+E(xc)   XCENC  =       606.11693495
  PAW double counting   =      1634.88814482    -1638.09751388
  entropy T*S    EENTRO =        -0.00000000
  eigenvalues    EBANDS =      -699.54192759
  atomic energy  EATOM  =      2380.19640632
  Solvation  Ediel_sol  =         0.00000000
  ---------------------------------------------------
  free energy    TOTEN  =      -433.94897324 eV

  energy without entropy =     -433.94897324  energy(sigma->0) =     -433.94897324


--------------------------------------------------------------------------------------------------------




--------------------------------------- Iteration      1(  14)  ---------------------------------------


    POTLOK:  cpu time    0.0184: real time    0.0185
    SETDIJ:  cpu time    0.0420: real time    0.0421
    EDDIAG:  cpu time    0.0574: real time    0.0576
  RMM-DIIS:  cpu time    0.6141: real time    0.6146
    ORTHCH:  cpu time    0.0130: real time    0.0130
       DOS:  cpu time    0.0001: real time    0.0001
    CHARGE:  cpu time    0.0162: real time    0.0163
    MIXING:  cpu time    0.0012: real time    0.0012
    --------------------------------------------
      LOOP:  cpu time    0.7624: real time    0.7633

 eigenvalue-minimisations  :   388
 total energy-change (2. order) : 0.3067121E+01  (-0.3389112E+00)
 number of electron     192.0000148 magnetization 
 augmentation part        2.0771430 magnetization 

 Broyden mixing:
  rms(total) = 0.11750E+00    rms(broyden)= 0.11704E+00
  rms(prec ) = 0.14180E+00
  weight for this iteration     100.00

 eigenvalues of (default mixing * dielectric matrix)
  average eigenvalue GAMMA=   2.1821
  1.9143  2.4500

 Free energy of the ion-electron system (eV)
  ---------------------------------------------------
  alpha Z        PSCENC =       241.47983536
  Ewald energy   TEWEN  =     -2856.76723081
  -Hartree energ DENC   =      -197.71711610
  -exchange      EXHF   =         0.00000000
  -V(xc)+E(xc)   XCENC  =       623.79092079
  PAW double counting   =      5103.50557351    -5109.24659977
  entropy T*S    EENTRO =        -0.00000000
  eigenvalues    EBANDS =      -616.12364138
  atomic energy  EATOM  =      2380.19640632
  Solvation  Ediel_sol  =         0.00000000
  ---------------------------------------------------
  free energy    TOTEN  =      -430.88185209 eV

  energy without entropy =     -430.88185209  energy(sigma->0) =     -430.88185209


--------------------------------------------------------------------------------------------------------




--------------------------------------- Iteration      1(  15)  ---------------------------------------


    POTLOK:  cpu time    0.0183: real time    0.0183
    SETDIJ:  cpu time    0.0420: real time    0.0421
[...]
  310            fftbas_plan_mpi                       0.089679                      150   5
  311              dfftw_execute                         0.051799                    450   6
  312              map_backward                          0.007253                    100   6
  313                map_gather                            0.002003                   50   7
  314                m_alltoallv_z                         0.002976                   50   7
  315                map_scatter                           0.002224                   50   7
  316              map_forward                           0.022276                    200   6
  317                map_gather                            0.008750                  100   7
  318                m_alltoallv_z                         0.009871                  100   7
  319                map_scatter                           0.003513                  100   7
  320          M_sumb_d                              0.000468                        150   4
  321        forhar                                1.151360                           50   3
  322          M_sumb_d                              0.010512                         50   4
  323        brmix                                 0.053665                           50   3
  324          M_sumb_d                              0.000703                        300   4
  325          brpre                                 0.001390                         50   4
  326          setg0                                 0.013588                         50   4
  327          broyd                                 0.018586                         50   4
  328            M_sumb_d                              0.000526                      461   5
  329            brget                                 0.007787                     1005   5
  330            brsav                                 0.002922                      361   5
  331        M_bcast_d                             0.000590                          100   3
  332      potlok                                0.934211                             51   2
  333        fft3d_mpi                             0.395899                          663   3
  334          fftbas_plan_mpi                       0.380795                        663   4
  335            dfftw_execute                         0.217401                     1989   5
  336            map_forward                           0.058118                      714   5
  337              map_gather                            0.016633                    408   6
  338              m_alltoallv_z                         0.029569                    408   6
  339              map_scatter                           0.011438                    408   6
  340            map_backward                          0.071067                      612   5
  341              map_gather                            0.018122                    306   6
  342              m_alltoallv_z                         0.038348                    306   6
  343              map_scatter                           0.014228                    306   6
  344        ggaall_grid                           0.242469                           51   3
  345        M_sumb_d                              0.001335                          306   3
  346        M_bcast_d                             0.003157                           51   3
  347      potlok_metagga                        0.000011                             51   2
  348      set_dd_magatom                        0.000004                             50   2
  349      set_dd_paw                            2.013833                             51   2
  350        M_sumb_d                              0.026498                          357   3
  351      fft3d_mpi                             0.005265                              6   2
  352        fftbas_plan_mpi                       0.005156                            6   3
  353          dfftw_execute                         0.002108                         18   4
  354          map_forward                           0.002670                         12   4
  355            map_gather                            0.000246                        6   5
  356            m_alltoallv_z                         0.002196                        6   5
  357            map_scatter                           0.000222                        6   5
  358      overl                                 0.042444                             50   2
  359      redis_proj                            0.059864                            150   2
  360        M_alltoall_d                          0.051288                        14550   3
  361      redis_pw                              0.053844                            100   2
  362        M_alltoall_d                          0.047400                         9700   3
  363      pdssyex_zheevx                        0.263924                             49   2
  364      lincom                                0.453576                             98   2
  365      eddiag                                0.057639                              1   2
  366        overl                                 0.000841                            1   3
  367        redis_proj                            0.001194                            3   3
  368          M_alltoall_d                          0.001026                        291   4
  369        fftwav_mpi                            0.019320                           97   3
  370          fft3d_mpi                             0.017855                         97   4
  371            fftbas_plan_mpi                       0.016626                       97   5
  372              dfftw_execute                         0.008577                    291   6
  373              map_forward                           0.002702                    194   6
  374                map_gather                            0.000266                   97   7
  375                m_alltoallv_z                         0.000772                   97   7
  376                map_scatter                           0.000423                   97   7
  377        hamilt_local                          0.019595                           97   3
  378          vhamil                                0.002494                         97   4
  379          kinhamil                              0.017039                         97   4
  380            fftext_mpi                            0.016866                       97   5
  381              fft3d_mpi                             0.016674                     97   6
  382                fftbas_plan_mpi                       0.015745                   97   7
  383                  dfftw_execute                         0.008761                291   8
  384                  map_backward                          0.001682                194   8
  385                    map_gather                            0.000284               97   9
  386                    m_alltoallv_z                         0.001049               97   9
  387                    map_scatter                           0.000264               97   9
  388        redis_pw                              0.001511                           15   3
  389          M_alltoall_d                          0.001309                        291   4
  390        orth1                                 0.004276                            7   3
  391        M_sumb_d                              0.000401                            2   3
  392        shift_bands_between_low_high          0.000000                            1   3
  393        pdssyex_zheevx                        0.005414                            1   3
  394        lincom                                0.004749                            1   3
  395      densta                                0.000063                              2   2
  396        M_sumb_d                              0.000022                           10   3
  397      lprj_proall                           0.000000                              1   2
 
 Flat profile
 ============
 
             routine name                   CPU           calls
 ---------------------------------------------------------------
 rpromu_gemm                            68.106704     4580928
 rpromu                                 30.231704       23859
 gemm                                   20.921015     1456128
 dfftw_execute                          17.136004      551004
 rspher_all                             15.566142         651
 total_time                             13.986838           1
 racc0mu                                12.505513        7584
 fftbas_plan_mpi                        10.817541      183670
 set_dd_paw                             10.209310         262
 M_sumb_d                                4.435735      377324
 setdij_                                 3.712550        1513
 eccp                                    3.207027       62794
 fftwav_mpi                              3.090414      133952
 vhamil                                  2.582366       46385
 fft3d_mpi                               2.423694      183668
 m_alltoallv_z                           2.251180      184041
 lincom                                  1.905675         494
 map_forward                             1.797884      271084
 orth1                                   1.401887        2772
 potlok                                  1.232620         212
 pdssyex_zheevx                          1.203399         222
 w1_daxpy                                1.195739       59030
 w1_copy                                 1.161131       88909
 forhar                                  1.140848          50
 forloc                                  1.131666          50
 M_alltoall_d                            1.045296      233091
 w1_dscal                                1.030069       68275
 ggaall_grid                             1.016647         212
 map_scatter                             0.853195      184041
 overl1                                  0.848039       55444
 eccp_nl                                 0.846643       46110
 map_gather                              0.809062      184041
 strnlr                                  0.756708          50
 set_charge                              0.442795         161
 overl                                   0.402462         446
 fornlr                                  0.269173          50
 i2                                      0.257016        7584
 elmin                                   0.234061          50
 pw_charge                               0.154755        7728
 eddrmm                                  0.146353         172
 kinhamil                                0.137296       46385
 depsum                                  0.135532         161
 force_and_stress                        0.119865          50
 fftext_mpi                              0.116957       46482
 choleski                                0.104325         223
 w1_gemv                                 0.092772       51680
 chggra                                  0.091306          50
 apply_precond                           0.088552       42435
 redis_proj                              0.075771        1338
 redis_pw                                0.070611        3141
 i3                                      0.066638        7584
 w1_dot                                  0.066588       16595
 rpro_isp                                0.065729         651
 setup_precond                           0.063827       16684
 eddiag                                  0.059775         173
 brmix                                   0.053275         161
 cnorma                                  0.050972       46110
 strelo                                  0.049512          50
 setg0                                   0.044736         211
 M_bcast_d                               0.044228       13533
 map_backward                            0.044094       96252
 w1_gaxpy                                0.042312       25840
 hamiltmu                                0.035544        7584
 i0                                      0.034339        7756
 strkin                                  0.032852          50
 raccmu_                                 0.026287        7584
 w1_projall                              0.023314        7584
 soft_charge                             0.016613         161
 brget                                   0.015264        2094
 orthch                                  0.015154         223
 broyd                                   0.015024         161
 hamilt_local                            0.009704       16781
 brsav                                   0.009320         995
 M_bcast_z                               0.008362         291
 i1                                      0.007723        7584
 fordep                                  0.005664          50
 truncate_high_frequency_w1              0.005165       46288
 crpa_reader                             0.004889           1
 brgrid                                  0.004646           1
 brpre                                   0.004478         161
 densta                                  0.003625         174
 phaser                                  0.000077         823
 potlok_metagga                          0.000054         212
 vectorpot                               0.000038         162
 set_dd_magatom                          0.000034         261
 shift_bands_between_low_high            0.000015         173
 redis_pw_over_bands                     0.000010          52
 rotate_active_occupied_orbital          0.000008          50
 FERMAT_RAZOR                            0.000000           1
 lprj_proall                             0.000000           1
 ---------------------------------------------------------------
  summed up times    244.42973423004150     
 
 Accumulative profile
 ====================
 
             routine name                   CPU           calls
 ---------------------------------------------------------------
 total_time                            244.429734           1
 elmin                                 118.763357          50
 rpromu                                 99.898418       23859
 force_and_stress                       99.540519          50
 eddrmm                                 95.244245         172
 rpro_isp                               80.628618         651
 rpromu_gemm                            68.106704     4580928
 strnlr                                 67.701202          50
 hamiltmu                               42.528164        7584
 fft3d_mpi                              36.043116      183668
 raccmu_                                34.245020        7584
 racc0mu                                33.727781        7584
 fftbas_plan_mpi                        33.708960      183670
 w1_projall                             32.655488        7584
 fftwav_mpi                             28.421802      133952
 fornlr                                 22.970468          50
 gemm                                   20.921015     1456128
 dfftw_execute                          17.136004      551004
 rspher_all                             15.566142         651
 set_dd_paw                             10.389257         262
 eddiag                                 10.061142         173
 kinhamil                                9.062368       46385
 fftext_mpi                              8.944949       46482
 i2                                      8.308347        7584
 i3                                      5.889419        7584
 i0                                      4.886217        7756
 M_sumb_d                                4.435735      377324
 map_forward                             4.291081      271084
 setdij_                                 3.972127        1513
 potlok                                  3.908338         212
 hamilt_local                            3.406837       16781
 eccp                                    3.365624       62794
 vhamil                                  2.582366       46385
 set_charge                              2.425999         161
 m_alltoallv_z                           2.251180      184041
 orthch                                  2.243980         223
 lincom                                  1.905675         494
 soft_charge                             1.722059         161
 map_backward                            1.464334       96252
 orth1                                   1.401887        2772
 pdssyex_zheevx                          1.203399         222
 w1_daxpy                                1.195739       59030
 w1_copy                                 1.161131       88909
 forhar                                  1.151360          50
 forloc                                  1.144109          50
 M_alltoall_d                            1.045296      233091
 w1_dscal                                1.030069       68275
 ggaall_grid                             1.016647         212
 cnorma                                  0.963203       46110
 map_scatter                             0.853195      184041
 overl1                                  0.848039       55444
 eccp_nl                                 0.846643       46110
 map_gather                              0.809062      184041
 fordep                                  0.794016          50
 redis_pw                                0.617693        3141
 redis_proj                              0.573983        1338
 w1_gemv                                 0.502433       51680
 overl                                   0.402462         446
 chggra                                  0.184637          50
 i1                                      0.158480        7584
 pw_charge                               0.154755        7728
 brmix                                   0.146047         161
 depsum                                  0.141966         161
 choleski                                0.104325         223
 apply_precond                           0.088552       42435
 w1_dot                                  0.082824       16595
 setup_precond                           0.075643       16684
 strelo                                  0.050178          50
 setg0                                   0.044736         211
 M_bcast_d                               0.044260       13533
 w1_gaxpy                                0.042312       25840
 broyd                                   0.040983         161
 strkin                                  0.033098          50
 brget                                   0.015264        2094
 brsav                                   0.009320         995
 M_bcast_z                               0.008362         291
 densta                                  0.006623         174
 truncate_high_frequency_w1              0.005165       46288
 crpa_reader                             0.004889           1
 brgrid                                  0.004646           1
 brpre                                   0.004478         161
 phaser                                  0.000077         823
 potlok_metagga                          0.000054         212
 vectorpot                               0.000038         162
 set_dd_magatom                          0.000034         261
 shift_bands_between_low_high            0.000015         173
 redis_pw_over_bands                     0.000010          52
 rotate_active_occupied_orbital          0.000008          50
 FERMAT_RAZOR                            0.000000           1
 lprj_proall                             0.000000           1
 ---------------------------------------------------------------
 
Profiling took   0.782110  0.521257  0.001930  0.001890 seconds
Profiling took   0.635698 seconds
