unknown system                          
           1
     6.223215    0.000000    0.000000
    -3.105484    5.392986    0.000000
     0.000000    0.000000   11.097194
   H 
   192
Direct configuration=     1
   0.25030434  0.42113901  0.06009431
   0.87816269  0.15508595  0.56284195
   0.50395157  0.16966601  0.56233513
   0.99790419  0.40964366  0.56474913
   0.60779336  0.03675026  0.56906556
   0.82886229  0.49969510  0.68990567
   0.94311225  0.48969709  0.69408261
   0.59491375  0.37183232  0.68715847
   0.58033504  0.24605331  0.68766464
   0.84035268  0.25209241  0.68525081
   0.76030266  0.30688546  0.55591727
   0.71325405  0.14221054  0.68093439
   0.73969734  0.19311454  0.94408273
   0.62183731  0.34491405  0.93715805
   0.99604843  0.33033399  0.93766487
   0.50209581  0.09035634  0.93525087
   0.89220664  0.46324974  0.93093444
   0.67113771  0.00030490  0.81009433
   0.55688775  0.01030291  0.80591739
   0.90508625  0.12816768  0.81284153
   0.91966496  0.25394669  0.81233536
   0.74969566  0.07886099  0.93990569
   0.65964732  0.24790759  0.81474919
   0.75030434  0.42113901  0.56009431
   0.65964732  0.24790759  0.31474919
   0.87816269  0.15508595  0.06284195
   0.50395157  0.16966601  0.06233513
   0.99790419  0.40964366  0.06474913
   0.60779336  0.03675026  0.06906556
   0.82886229  0.49969510  0.18990567
   0.94311225  0.48969709  0.19408261
   0.59491375  0.37183232  0.18715847
   0.58033504  0.24605331  0.18766464
   0.84035268  0.25209241  0.18525081
   0.78674595  0.35778946  0.31906561
   0.71325405  0.14221054  0.18093439
   0.73969734  0.19311454  0.44408273
   0.62183731  0.34491405  0.43715805
   0.99604843  0.33033399  0.43766487
   0.50209581  0.09035634  0.43525087
   0.89220664  0.46324974  0.43093444
   0.67113771  0.00030490  0.31009433
   0.55688775  0.01030291  0.30591739
   0.90508625  0.12816768  0.31284153
   0.91966496  0.25394669  0.31233536
   0.74969566  0.07886099  0.43990569
   0.76030266  0.30688546  0.05591727
   0.78674595  0.35778946  0.81906561
   0.76030266  0.80688546  0.05591727
   0.87816269  0.65508595  0.56284195
   0.50395157  0.66966601  0.56233513
   0.99790419  0.90964366  0.56474913
   0.60779336  0.53675026  0.56906556
   0.82886229  0.99969510  0.68990567
   0.94311225  0.98969709  0.69408261
   0.59491375  0.87183232  0.68715847
   0.58033504  0.74605331  0.68766464
   0.84035268  0.75209241  0.68525081
   0.76030266  0.80688546  0.55591727
   0.71325405  0.64221054  0.68093439
   0.73969734  0.69311454  0.94408273
   0.62183731  0.84491405  0.93715805
   0.99604843  0.83033399  0.93766487
   0.50209581  0.59035634  0.93525087
   0.89220664  0.96324974  0.93093444
   0.67113771  0.50030490  0.81009433
   0.55688775  0.51030291  0.80591739
   0.90508625  0.62816768  0.81284153
   0.91966496  0.75394669  0.81233536
   0.74969566  0.57886099  0.93990569
   0.75030434  0.92113901  0.06009431
   0.75030434  0.92113901  0.56009431
   0.65964732  0.74790759  0.31474919
   0.87816269  0.65508595  0.06284195
   0.50395157  0.66966601  0.06233513
   0.99790419  0.90964366  0.06474913
   0.60779336  0.53675026  0.06906556
   0.82886229  0.99969510  0.18990567
   0.94311225  0.98969709  0.19408261
   0.59491375  0.87183232  0.18715847
   0.58033504  0.74605331  0.18766464
   0.84035268  0.75209241  0.18525081
   0.78674595  0.85778946  0.31906561
   0.71325405  0.64221054  0.18093439
   0.73969734  0.69311454  0.44408273
   0.62183731  0.84491405  0.43715805
   0.99604843  0.83033399  0.43766487
   0.50209581  0.59035634  0.43525087
   0.89220664  0.96324974  0.43093444
   0.67113771  0.50030490  0.31009433
   0.55688775  0.51030291  0.30591739
   0.90508625  0.62816768  0.31284153
   0.91966496  0.75394669  0.31233536
   0.74969566  0.57886099  0.43990569
   0.75030434  0.42113901  0.06009431
   0.28674595  0.85778946  0.81906561
   0.15964732  0.74790759  0.81474919
   0.26030266  0.30688546  0.55591727
   0.37816269  0.15508595  0.56284195
   0.00395157  0.16966601  0.56233513
   0.49790419  0.40964366  0.56474913
   0.10779336  0.03675026  0.56906556
   0.32886229  0.49969510  0.68990567
   0.44311225  0.48969709  0.69408261
   0.09491375  0.37183232  0.68715847
   0.08033504  0.24605331  0.68766464
   0.25030434  0.42113901  0.56009431
   0.34035268  0.25209241  0.68525081
   0.24969566  0.07886099  0.93990569
   0.23969734  0.19311454  0.94408273
   0.12183731  0.34491405  0.93715805
   0.49604843  0.33033399  0.93766487
   0.00209581  0.09035634  0.93525087
   0.39220664  0.46324974  0.93093444
   0.17113771  0.00030490  0.81009433
   0.05688775  0.01030291  0.80591739
   0.40508625  0.12816768  0.81284153
   0.21325405  0.14221054  0.68093439
   0.41966496  0.25394669  0.81233536
   0.28674595  0.35778946  0.31906561
   0.41966496  0.25394669  0.31233536
   0.26030266  0.30688546  0.05591727
   0.37816269  0.15508595  0.06284195
   0.00395157  0.16966601  0.06233513
   0.49790419  0.40964366  0.06474913
   0.10779336  0.03675026  0.06906556
   0.32886229  0.49969510  0.18990567
   0.44311225  0.48969709  0.19408261
   0.09491375  0.37183232  0.18715847
   0.08033504  0.24605331  0.18766464
   0.15964732  0.24790759  0.31474919
   0.34035268  0.25209241  0.18525081
   0.24969566  0.07886099  0.43990569
   0.23969734  0.19311454  0.44408273
   0.12183731  0.34491405  0.43715805
   0.49604843  0.33033399  0.43766487
   0.00209581  0.09035634  0.43525087
   0.39220664  0.46324974  0.43093444
   0.17113771  0.00030490  0.31009433
   0.05688775  0.01030291  0.30591739
   0.40508625  0.12816768  0.31284153
   0.21325405  0.14221054  0.18093439
   0.15964732  0.24790759  0.81474919
   0.28674595  0.35778946  0.81906561
   0.25030434  0.92113901  0.06009431
   0.37816269  0.65508595  0.56284195
   0.00395157  0.66966601  0.56233513
   0.49790419  0.90964366  0.56474913
   0.10779336  0.53675026  0.56906556
   0.32886229  0.99969510  0.68990567
   0.44311225  0.98969709  0.69408261
   0.09491375  0.87183232  0.68715847
   0.08033504  0.74605331  0.68766464
   0.34035268  0.75209241  0.68525081
   0.26030266  0.80688546  0.55591727
   0.21325405  0.64221054  0.68093439
   0.23969734  0.69311454  0.94408273
   0.12183731  0.84491405  0.93715805
   0.49604843  0.83033399  0.93766487
   0.00209581  0.59035634  0.93525087
   0.39220664  0.96324974  0.93093444
   0.17113771  0.50030490  0.81009433
   0.05688775  0.51030291  0.80591739
   0.40508625  0.62816768  0.81284153
   0.41966496  0.75394669  0.81233536
   0.24969566  0.57886099  0.93990569
   0.25030434  0.92113901  0.56009431
   0.28674595  0.85778946  0.31906561
   0.15964732  0.74790759  0.31474919
   0.26030266  0.80688546  0.05591727
   0.37816269  0.65508595  0.06284195
   0.00395157  0.66966601  0.06233513
   0.49790419  0.90964366  0.06474913
   0.10779336  0.53675026  0.06906556
   0.32886229  0.99969510  0.18990567
   0.44311225  0.98969709  0.19408261
   0.09491375  0.87183232  0.18715847
   0.08033504  0.74605331  0.18766464
   0.34035268  0.75209241  0.18525081
   0.21325405  0.64221054  0.18093439
   0.24969566  0.57886099  0.43990569
   0.23969734  0.69311454  0.44408273
   0.12183731  0.84491405  0.43715805
   0.49604843  0.83033399  0.43766487
   0.00209581  0.59035634  0.43525087
   0.39220664  0.96324974  0.43093444
   0.17113771  0.50030490  0.31009433
   0.05688775  0.51030291  0.30591739
   0.40508625  0.62816768  0.31284153
   0.41966496  0.75394669  0.31233536
   0.65964732  0.74790759  0.81474919
   0.78674595  0.85778946  0.81906561
Direct configuration=     2
   0.25045862  0.42051241  0.06004451
   0.87861808  0.15509268  0.56284389
   0.50327369  0.16955389  0.56232927
   0.99853172  0.41039605  0.56480023
   0.60722339  0.03619517  0.56911450
   0.82948824  0.49954109  0.68995541
   0.94254220  0.48969013  0.69412506
   0.59490719  0.37137993  0.68715642
   0.58044667  0.24672830  0.68767040
   0.83960242  0.25146672  0.68519975
   0.76030966  0.30745663  0.55587484
   0.71380667  0.14277823  0.68088536
   0.73969032  0.19254334  0.94412517
   0.62138197  0.34490735  0.93715610
   0.99672637  0.33044611  0.93767071
   0.50146833  0.08960397  0.93519977
   0.89277653  0.46380473  0.93088550
   0.67051165  0.00045888  0.81004458
   0.55745783  0.01030983  0.80587496
   0.90509279  0.12862001  0.81284357
   0.91955334  0.25327168  0.81232961
   0.74954137  0.07948758  0.93995548
   0.66039768  0.24853339  0.81480025
   0.75045859  0.42051243  0.56004452
   0.66039761  0.24853334  0.31480026
   0.87861799  0.15509265  0.06284391
   0.50327364  0.16955387  0.06232929
   0.99853168  0.41039602  0.06480024
   0.60722347  0.03619522  0.06911451
   0.82948827  0.49954109  0.18995539
   0.94254216  0.48969008  0.19412503
   0.59490720  0.37137995  0.18715643
   0.58044665  0.24672832  0.18767039
   0.83960241  0.25146675  0.18519973
   0.78619323  0.35722162  0.31911462
   0.71380669  0.14277828  0.18088537
   0.73969037  0.19254331  0.44412518
   0.62138195  0.34490735  0.43715610
   0.99672634  0.33044609  0.43767072
   0.50146830  0.08960394  0.43519977
   0.89277651  0.46380476  0.43088550
   0.67051172  0.00045894  0.31004460
   0.55745777  0.01030986  0.30587496
   0.90509283  0.12862002  0.31284358
   0.91955336  0.25327176  0.31232960
   0.74954140  0.07948757  0.43995551
   0.76030963  0.30745661  0.05587481
   0.78619318  0.35722162  0.81911461
   0.76030964  0.80745663  0.05587482
   0.87861803  0.65509268  0.56284389
   0.50327370  0.66955392  0.56232930
   0.99853175  0.91039612  0.56480024
   0.60722341  0.53619515  0.56911450
   0.82948831  0.99954111  0.68995541
   0.94254218  0.98969013  0.69412506
   0.59490714  0.87137990  0.68715642
   0.58044662  0.74672834  0.68767041
   0.83960238  0.75146668  0.68519973
   0.76030961  0.80745656  0.55587481
   0.71380681  0.64277834  0.68088538
   0.73969031  0.69254338  0.94412517
   0.62138198  0.84490735  0.93715611
   0.99672633  0.83044611  0.93767072
   0.50146833  0.58960397  0.93519975
   0.89277648  0.96380472  0.93088550
   0.67051167  0.50045891  0.81004457
   0.55745788  0.51030988  0.80587494
   0.90509283  0.62862002  0.81284358
   0.91955336  0.75327169  0.81232961
   0.74954137  0.57948759  0.93995549
   0.75045858  0.92051245  0.06004449
   0.75045859  0.92051247  0.56004451
   0.66039761  0.74853333  0.31480026
   0.87861800  0.65509265  0.06284390
   0.50327362  0.66955389  0.06232927
   0.99853172  0.91039607  0.06480023
   0.60722347  0.53619521  0.06911451
   0.82948829  0.99954105  0.18995540
   0.94254215  0.98969012  0.19412503
   0.59490719  0.87138000  0.18715642
   0.58044665  0.74672824  0.18767039
   0.83960242  0.75146670  0.18519975
   0.78619332  0.85722173  0.31911463
   0.71380669  0.64277827  0.18088538
   0.73969037  0.69254332  0.44412518
   0.62138190  0.84490731  0.43715610
   0.99672635  0.83044611  0.43767070
   0.50146830  0.58960395  0.43519976
   0.89277650  0.96380475  0.43088550
   0.67051174  0.50045896  0.31004460
   0.55745785  0.51030990  0.30587496
   0.90509280  0.62862005  0.31284359
   0.91955332  0.75327174  0.31232962
   0.74954141  0.57948759  0.43995550
   0.75045857  0.42051244  0.06004449
   0.28619320  0.85722160  0.81911462
   0.16039762  0.74853328  0.81480026
   0.26030963  0.30745665  0.55587482
   0.37861802  0.15509268  0.56284389
   0.00327366  0.16955389  0.56232927
   0.49853179  0.41039612  0.56480024
   0.10722344  0.03619520  0.56911450
   0.32948827  0.49954109  0.68995540
   0.44254220  0.48969013  0.69412505
   0.09490718  0.37137990  0.68715641
   0.08044672  0.24672835  0.68767040
   0.25045857  0.42051238  0.56004449
   0.33960238  0.25146667  0.68519974
   0.24954141  0.07948763  0.93995552
   0.23969034  0.19254332  0.94412520
   0.12138203  0.34490735  0.93715610
   0.49672638  0.33044613  0.93767071
   0.00146829  0.08960395  0.93519977
   0.39277648  0.46380470  0.93088549
   0.17051178  0.00045894  0.81004460
   0.05745780  0.01030990  0.80587496
   0.40509279  0.12861999  0.81284357
   0.21380671  0.14277831  0.68088539
   0.41955335  0.25327174  0.81232960
   0.28619325  0.35722168  0.31911463
   0.41955333  0.25327170  0.31232959
   0.26030966  0.30745659  0.05587484
   0.37861797  0.15509262  0.06284390
   0.00327363  0.16955388  0.06232929
   0.49853171  0.41039605  0.06480025
   0.10722350  0.03619527  0.06911450
   0.32948829  0.49954111  0.18995541
   0.44254222  0.48969016  0.19412505
   0.09490725  0.37138001  0.18715642
   0.08044668  0.24672829  0.18767040
   0.16039763  0.24853333  0.31480026
   0.33960235  0.25146666  0.18519973
   0.24954139  0.07948754  0.43995550
   0.23969036  0.19254340  0.44412517
   0.12138205  0.34490735  0.43715611
   0.49672638  0.33044611  0.43767070
   0.00146829  0.08960396  0.43519976
   0.39277648  0.46380476  0.43088549
   0.17051170  0.00045892  0.31004459
   0.05745785  0.01030986  0.30587494
   0.40509279  0.12862004  0.31284358
   0.21380681  0.14277839  0.18088536
   0.16039766  0.24853334  0.81480026
   0.28619328  0.35722171  0.81911461
   0.25045862  0.92051245  0.06004450
   0.37861801  0.65509269  0.56284392
   0.00327363  0.66955388  0.56232928
   0.49853177  0.91039612  0.56480024
   0.10722350  0.53619526  0.56911450
   0.32948828  0.99954105  0.68995540
   0.44254221  0.98969014  0.69412506
   0.09490718  0.87137995  0.68715643
   0.08044666  0.74672831  0.68767041
   0.33960239  0.75146670  0.68519975
   0.26030965  0.80745660  0.55587482
   0.21380671  0.64277831  0.68088539
   0.23969034  0.69254336  0.94412517
   0.12138203  0.84490738  0.93715612
   0.49672637  0.83044610  0.93767072
   0.00146828  0.58960393  0.93519977
   0.39277656  0.96380479  0.93088550
   0.17051170  0.50045894  0.81004459
   0.05745788  0.51030986  0.80587496
   0.40509287  0.62862004  0.81284357
   0.41955334  0.75327166  0.81232960
   0.24954143  0.57948763  0.93995550
   0.25045859  0.92051243  0.56004450
   0.28619325  0.85722165  0.31911462
   0.16039765  0.74853334  0.31480026
   0.26030967  0.80745663  0.05587483
   0.37861796  0.65509267  0.06284388
   0.00327365  0.66955387  0.06232929
   0.49853171  0.91039605  0.06480024
   0.10722352  0.53619530  0.06911450
   0.32948827  0.99954109  0.18995541
   0.44254224  0.98969016  0.19412506
   0.09490724  0.87138003  0.18715641
   0.08044669  0.74672825  0.18767038
   0.33960239  0.75146670  0.18519974
   0.21380675  0.64277833  0.18088537
   0.24954141  0.57948754  0.43995550
   0.23969033  0.69254340  0.44412517
   0.12138199  0.84490735  0.43715610
   0.49672639  0.83044611  0.43767071
   0.00146829  0.58960398  0.43519974
   0.39277647  0.96380470  0.43088550
   0.17051174  0.50045895  0.31004458
   0.05745783  0.51030988  0.30587494
   0.40509278  0.62862007  0.31284358
   0.41955333  0.75327171  0.31232960
   0.66039763  0.74853333  0.81480028
   0.78619318  0.85722165  0.81911463
Direct configuration=     3
   0.25071931  0.41956524  0.05994989
   0.87922400  0.15508843  0.56284875
   0.50221061  0.16937970  0.56231629
   0.99950009  0.41154833  0.56489749
   0.60642706  0.03545567  0.56923294
   0.83043439  0.49928074  0.69004993
   0.94176314  0.48967091  0.69423083
   0.59491168  0.37077829  0.68715141
   0.58062018  0.24778717  0.68768327
   0.83845323  0.25050098  0.68510254
   0.76032900  0.30823741  0.55576908
   0.71454272  0.14357147  0.68076680
   0.73967097  0.19176254  0.94423093
   0.62077605  0.34491159  0.93715124
   0.99778945  0.33062032  0.93768370
   0.50050002  0.08845174  0.93510251
   0.89357287  0.46454422  0.93076705
   0.66956547  0.00071922  0.80995009
   0.55823688  0.01032906  0.80576919
   0.90508829  0.12922163  0.81284858
   0.91937986  0.25221281  0.81231674
   0.74928068  0.08043472  0.94005010
   0.66154680  0.24949906  0.81489746
   0.75071927  0.41956528  0.55994990
   0.66154674  0.24949903  0.31489747
   0.87922385  0.15508839  0.06284879
   0.50221051  0.16937968  0.06231630
   0.99949997  0.41154821  0.06489751
   0.60642708  0.03545567  0.06923296
   0.83043444  0.49928074  0.19004989
   0.94176310  0.48967083  0.19423080
   0.59491166  0.37077832  0.18715141
   0.58062015  0.24778717  0.18768327
   0.83845325  0.25050106  0.18510252
   0.78545713  0.35642832  0.31923318
   0.71454274  0.14357156  0.18076681
   0.73967102  0.19176253  0.44423095
   0.62077605  0.34491160  0.43715121
   0.99778946  0.33062028  0.43768372
   0.50049994  0.08845164  0.43510250
   0.89357289  0.46454431  0.43076707
   0.66956555  0.00071930  0.30995009
   0.55823684  0.01032911  0.30576918
   0.90508833  0.12922168  0.31284860
   0.91937987  0.25221292  0.31231673
   0.74928074  0.08043463  0.44005013
   0.76032897  0.30823736  0.05576906
   0.78545709  0.35642835  0.81923316
   0.76032897  0.80823740  0.05576906
   0.87922392  0.65508844  0.56284876
   0.50221053  0.66937968  0.56231632
   0.99950009  0.91154840  0.56489751
   0.60642710  0.53545572  0.56923295
   0.83043449  0.99928081  0.69004992
   0.94176311  0.98967089  0.69423082
   0.59491166  0.87077828  0.68715141
   0.58062012  0.74778719  0.68768329
   0.83845324  0.75050100  0.68510253
   0.76032893  0.80823733  0.55576904
   0.71454291  0.64357161  0.68076684
   0.73967095  0.69176258  0.94423092
   0.62077606  0.84491164  0.93715124
   0.99778948  0.83062037  0.93768370
   0.50050002  0.58845173  0.93510248
   0.89357280  0.96454422  0.93076705
   0.66956555  0.50071925  0.80995006
   0.55823693  0.51032914  0.80576917
   0.90508834  0.62922167  0.81284860
   0.91937988  0.75221281  0.81231672
   0.74928067  0.58043476  0.94005011
   0.75071927  0.91956536  0.05994987
   0.75071930  0.91956533  0.55994988
   0.66154678  0.74949905  0.31489747
   0.87922385  0.65508840  0.06284877
   0.50221051  0.66937967  0.06231629
   0.99950007  0.91154832  0.06489750
   0.60642708  0.53545566  0.06923295
   0.83043444  0.99928072  0.19004991
   0.94176310  0.98967085  0.19423080
   0.59491170  0.87077832  0.18715141
   0.58062015  0.74778717  0.18768326
   0.83845324  0.75050101  0.18510253
   0.78545723  0.85642845  0.31923319
   0.71454276  0.64357156  0.18076682
   0.73967104  0.69176252  0.44423093
   0.62077598  0.84491157  0.43715122
   0.99778942  0.83062032  0.43768369
   0.50049999  0.58845172  0.43510250
   0.89357288  0.96454427  0.43076707
   0.66956555  0.50071932  0.30995010
   0.55823699  0.51032917  0.30576920
   0.90508831  0.62922176  0.31284860
   0.91937978  0.75221283  0.31231675
   0.74928073  0.58043472  0.44005012
   0.75071926  0.41956530  0.05994988
   0.28545713  0.85642832  0.81923318
   0.16154668  0.74949886  0.81489747
   0.26032897  0.30823745  0.55576906
   0.37922397  0.15508844  0.56284876
   0.00221060  0.16937967  0.56231627
   0.49950007  0.41154831  0.56489750
   0.10642705  0.03545567  0.56923294
   0.33043446  0.49928075  0.69004991
   0.44176311  0.48967087  0.69423082
   0.09491168  0.37077825  0.68715140
   0.08062020  0.24778719  0.68768328
   0.25071924  0.41956524  0.55994987
   0.33845326  0.25050099  0.68510254
   0.24928071  0.08043479  0.94005014
   0.23967102  0.19176251  0.94423096
   0.12077621  0.34491161  0.93715123
   0.49778950  0.33062035  0.93768370
   0.00049992  0.08845168  0.93510251
   0.39357280  0.46454415  0.93076703
   0.16956560  0.00071928  0.80995009
   0.05823691  0.01032914  0.80576920
   0.40508828  0.12922162  0.81284860
   0.21454277  0.14357157  0.68076683
   0.41937986  0.25221288  0.81231674
   0.28545721  0.35642843  0.31923319
   0.41937982  0.25221284  0.31231673
   0.26032901  0.30823739  0.05576908
   0.37922389  0.15508836  0.06284878
   0.00221052  0.16937965  0.06231631
   0.49950006  0.41154833  0.06489751
   0.10642714  0.03545578  0.06923294
   0.33043453  0.49928076  0.19004992
   0.44176310  0.48967092  0.19423083
   0.09491172  0.37077837  0.18715139
   0.08062019  0.24778720  0.18768328
   0.16154675  0.24949902  0.31489747
   0.33845326  0.25050104  0.18510252
   0.24928070  0.08043468  0.44005012
   0.23967104  0.19176263  0.44423093
   0.12077618  0.34491160  0.43715124
   0.49778951  0.33062034  0.43768368
   0.00049990  0.08845167  0.43510251
   0.39357279  0.46454423  0.43076704
   0.16956548  0.00071925  0.30995010
   0.05823694  0.01032908  0.30576918
   0.40508829  0.12922172  0.31284860
   0.21454289  0.14357166  0.18076679
   0.16154680  0.24949904  0.81489747
   0.28545725  0.35642849  0.81923317
   0.25071932  0.91956534  0.05994988
   0.37922398  0.65508847  0.56284879
   0.00221053  0.66937967  0.56231629
   0.49950008  0.91154838  0.56489751
   0.10642714  0.53545575  0.56923294
   0.33043446  0.99928072  0.69004992
   0.44176318  0.98967089  0.69423084
   0.09491164  0.87077824  0.68715142
   0.08062016  0.74778720  0.68768329
   0.33845322  0.75050101  0.68510254
   0.26032900  0.80823734  0.55576906
   0.21454278  0.64357157  0.68076682
   0.23967102  0.69176262  0.94423093
   0.12077613  0.84491165  0.93715124
   0.49778950  0.83062032  0.93768370
   0.00049991  0.58845166  0.93510251
   0.39357293  0.96454432  0.93076707
   0.16956557  0.50071927  0.80995009
   0.05823697  0.51032911  0.80576919
   0.40508836  0.62922169  0.81284859
   0.41937981  0.75221270  0.81231673
   0.24928074  0.58043477  0.94005012
   0.25071929  0.91956532  0.55994988
   0.28545722  0.85642843  0.31923317
   0.16154674  0.74949898  0.31489747
   0.26032904  0.80823743  0.05576906
   0.37922377  0.65508840  0.06284875
   0.00221058  0.66937966  0.06231630
   0.49950006  0.91154835  0.06489750
   0.10642722  0.53545586  0.06923295
   0.33043446  0.99928074  0.19004991
   0.44176316  0.98967091  0.19423083
   0.09491173  0.87077832  0.18715139
   0.08062019  0.74778722  0.18768325
   0.33845321  0.75050099  0.18510253
   0.21454286  0.64357163  0.18076681
   0.24928073  0.58043465  0.44005011
   0.23967100  0.69176264  0.44423094
   0.12077611  0.84491160  0.43715122
   0.49778951  0.83062032  0.43768368
   0.00049992  0.58845170  0.43510247
   0.39357281  0.96454421  0.43076707
   0.16956555  0.50071929  0.30995006
   0.05823687  0.51032913  0.30576916
   0.40508832  0.62922178  0.31284860
   0.41937981  0.75221284  0.31231673
   0.66154673  0.74949896  0.81489750
   0.78545713  0.85642841  0.81923321
Direct configuration=     4
   0.25101324  0.41878305  0.05982150
   0.87950043  0.15504161  0.56285848
   0.50123120  0.16922079  0.56229401
   0.00035515  0.41254529  0.56502971
   0.60593601  0.03510975  0.56944965
   0.83121578  0.49898701  0.69017825
   0.94133466  0.48962736  0.69442935
   0.59495864  0.37050451  0.68714154
   0.58077861  0.24876387  0.68770548
   0.83745857  0.24964778  0.68497036
   0.76037272  0.30866729  0.55557055
   0.71488633  0.14406050  0.68054999
   0.73962724  0.19133269  0.94442944
   0.62049965  0.34495844  0.93714150
   0.99876889  0.33077918  0.93770601
   0.49964508  0.08745487  0.93497032
   0.89406406  0.46489024  0.93055033
   0.66878424  0.00101298  0.80982183
   0.55866528  0.01037267  0.80557068
   0.90504132  0.12949538  0.81285842
   0.91922146  0.25123607  0.81229449
   0.74898682  0.08121692  0.94017849
   0.66254140  0.25035204  0.81502962
   0.75101323  0.41878312  0.55982151
   0.66254138  0.25035199  0.31502962
   0.87950032  0.15504162  0.06285853
   0.50123098  0.16922081  0.06229400
   0.00035489  0.41254505  0.06502976
   0.60593585  0.03510965  0.06944966
   0.83121586  0.49898702  0.19017821
   0.94133459  0.48962723  0.19442933
   0.59495855  0.37050457  0.18714157
   0.58077860  0.24876389  0.18770551
   0.83745865  0.24964794  0.18497036
   0.78511355  0.35593921  0.31944998
   0.71488635  0.14406069  0.18055000
   0.73962732  0.19133265  0.44442947
   0.62049957  0.34495834  0.43714141
   0.99876894  0.33077916  0.43770600
   0.49964495  0.08745479  0.43497026
   0.89406416  0.46489036  0.43055035
   0.66878426  0.00101309  0.30982175
   0.55866535  0.01037281  0.30557061
   0.90504128  0.12949544  0.31285846
   0.91922135  0.25123613  0.31229451
   0.74898681  0.08121674  0.44017852
   0.76037270  0.30866716  0.05557060
   0.78511348  0.35593931  0.81944997
   0.76037266  0.80866724  0.05557055
   0.87950039  0.65504168  0.56285852
   0.50123093  0.66922073  0.56229400
   0.00035505  0.91254522  0.56502973
   0.60593595  0.53510981  0.56944968
   0.83121582  0.99898715  0.69017820
   0.94133473  0.98962731  0.69442927
   0.59495871  0.87050463  0.68714160
   0.58077864  0.74876385  0.68770553
   0.83745869  0.74964799  0.68497040
   0.76037253  0.80866719  0.55557054
   0.71488645  0.64406060  0.68055008
   0.73962726  0.69133269  0.94442939
   0.62049958  0.84495846  0.93714148
   0.99876901  0.83077938  0.93770598
   0.49964507  0.58745484  0.93497026
   0.89406397  0.96489017  0.93055032
   0.66878422  0.50101295  0.80982177
   0.55866534  0.51037271  0.80557068
   0.90504131  0.62949540  0.81285846
   0.91922140  0.75123604  0.81229447
   0.74898672  0.58121701  0.94017852
   0.75101329  0.91878326  0.05982147
   0.75101328  0.91878310  0.55982149
   0.66254147  0.75035216  0.31502963
   0.87950029  0.65504161  0.06285851
   0.50123106  0.66922075  0.06229400
   0.00035505  0.91254516  0.06502971
   0.60593586  0.53510964  0.06944963
   0.83121574  0.99898701  0.19017822
   0.94133462  0.98962716  0.19442934
   0.59495877  0.87050455  0.18714155
   0.58077864  0.74876399  0.18770550
   0.83745849  0.74964793  0.18497033
   0.78511358  0.85593931  0.31944998
   0.71488638  0.64406072  0.18055002
   0.73962731  0.69133267  0.44442944
   0.62049957  0.84495841  0.43714145
   0.99876880  0.83077924  0.43770599
   0.49964514  0.58745501  0.43497033
   0.89406419  0.96489034  0.43055036
   0.66878415  0.50101306  0.30982177
   0.55866552  0.51037278  0.30557068
   0.90504142  0.62949564  0.31285843
   0.91922124  0.75123602  0.31229454
   0.74898673  0.58121686  0.44017849
   0.75101320  0.41878310  0.05982152
   0.28511356  0.85593927  0.81944996
   0.16254123  0.75035185  0.81502964
   0.26037273  0.30866732  0.55557054
   0.37950052  0.15504156  0.56285851
   0.00123123  0.16922076  0.56229397
   0.50035488  0.41254499  0.56502973
   0.10593576  0.03510966  0.56944966
   0.33121582  0.49898695  0.69017824
   0.44133455  0.48962720  0.69442938
   0.09495865  0.37050453  0.68714157
   0.08077855  0.24876388  0.68770553
   0.25101324  0.41878317  0.55982148
   0.33745869  0.24964801  0.68497040
   0.24898669  0.08121689  0.94017850
   0.23962728  0.19133268  0.94442946
   0.12049977  0.34495839  0.93714150
   0.49876890  0.33077925  0.93770599
   0.99964508  0.08745497  0.93497029
   0.39406412  0.46489024  0.93055028
   0.16878414  0.00101302  0.80982175
   0.05866547  0.01037274  0.80557067
   0.40504136  0.12949543  0.81285846
   0.21488634  0.14406066  0.68055003
   0.41922139  0.25123610  0.81229454
   0.28511369  0.35593941  0.31944999
   0.41922138  0.25123611  0.31229451
   0.26037272  0.30866724  0.05557059
   0.37950045  0.15504154  0.06285853
   0.00123106  0.16922074  0.06229400
   0.50035498  0.41254510  0.06502971
   0.10593585  0.03510977  0.06944963
   0.33121588  0.49898701  0.19017821
   0.44133454  0.48962723  0.19442936
   0.09495860  0.37050457  0.18714155
   0.08077861  0.24876401  0.18770551
   0.16254129  0.25035210  0.31502964
   0.33745877  0.24964807  0.18497037
   0.24898678  0.08121685  0.44017851
   0.23962740  0.19133286  0.44442943
   0.12049969  0.34495840  0.43714148
   0.49876896  0.33077921  0.43770593
   0.99964490  0.08745478  0.43497031
   0.39406400  0.46489022  0.43055033
   0.16878411  0.00101297  0.30982181
   0.05866539  0.01037267  0.30557069
   0.40504131  0.12949552  0.31285845
   0.21488641  0.14406065  0.18055000
   0.16254129  0.25035208  0.81502962
   0.28511374  0.35593949  0.81944998
   0.25101331  0.91878315  0.05982150
   0.37950060  0.65504169  0.56285850
   0.00123108  0.66922079  0.56229398
   0.50035489  0.91254510  0.56502973
   0.10593582  0.53510964  0.56944964
   0.33121586  0.99898704  0.69017828
   0.44133471  0.98962725  0.69442939
   0.09495851  0.87050433  0.68714158
   0.08077856  0.74876399  0.68770551
   0.33745847  0.74964790  0.68497037
   0.26037274  0.80866716  0.55557056
   0.21488645  0.64406069  0.68055003
   0.23962738  0.69133288  0.94442945
   0.12049963  0.84495843  0.93714150
   0.49876891  0.83077920  0.93770601
   0.99964490  0.58745484  0.93497029
   0.39406422  0.96489037  0.93055038
   0.16878428  0.50101290  0.80982180
   0.05866539  0.51037275  0.80557066
   0.40504127  0.62949542  0.81285845
   0.41922131  0.75123593  0.81229449
   0.24898678  0.58121687  0.94017852
   0.25101326  0.91878320  0.55982149
   0.28511367  0.85593952  0.31944996
   0.16254126  0.75035199  0.31502964
   0.26037281  0.80866738  0.05557057
   0.37950017  0.65504153  0.06285852
   0.00123121  0.66922078  0.06229400
   0.50035503  0.91254525  0.06502973
   0.10593600  0.53510985  0.06944969
   0.33121589  0.99898701  0.19017818
   0.44133467  0.98962733  0.19442933
   0.09495870  0.87050447  0.18714152
   0.08077862  0.74876405  0.18770547
   0.33745855  0.74964790  0.18497036
   0.21488644  0.64406069  0.18055002
   0.24898682  0.58121678  0.44017847
   0.23962729  0.69133279  0.44442944
   0.12049966  0.84495844  0.43714147
   0.49876892  0.83077918  0.43770597
   0.99964496  0.58745485  0.43497023
   0.39406408  0.96489032  0.43055035
   0.16878412  0.50101295  0.30982173
   0.05866529  0.51037275  0.30557062
   0.40504143  0.62949558  0.31285844
   0.41922142  0.75123615  0.31229449
   0.66254128  0.75035191  0.81502967
   0.78511360  0.85593938  0.81945002
Direct configuration=     5
   0.25128326  0.41854726  0.05967390
   0.87906697  0.15492248  0.56287529
   0.50072419  0.16913950  0.56226030
   0.00073980  0.41295039  0.56518237
   0.60615148  0.03559626  0.56978133
   0.83145146  0.49871693  0.69032592
   0.94167861  0.48954808  0.69473787
   0.59507759  0.37093702  0.68712477
   0.58086007  0.24927182  0.68773924
   0.83705305  0.24926279  0.68481771
   0.76045197  0.30832336  0.55526206
   0.71440011  0.14384537  0.68021839
   0.73954790  0.19167651  0.94473792