192
Lattice="6.22321522 0.0 0.0 -3.10548432 5.39298588 0.0 0.0 0.0 11.097194" Properties=species:S:1:pos:R:3:forces:R:3:energies:R:1 energy=-431.07165913 pbc="T T T"
H        0.29636019       2.24285665       0.67621495      -0.34033174       0.33462018       0.04625691       0.00000000
H        4.97382579       0.80257974       6.26452148      -0.41471283      -0.03799466       0.04216624       0.00000000
H        2.56535830       0.92237559       6.22006834       0.43813126       0.12679218      -0.02825947       0.00000000
H       -1.24580394       2.24143603       6.25903581      -0.09633649      -0.45545662      -0.05146170       0.00000000
H        3.63359260       0.21994710       6.36132808       0.15276504       0.40003726       0.05800821       0.00000000
H        3.65413067       2.66868762       7.64665314      -0.45850990       0.12777276      -0.04599228       0.00000000
H        4.35967596       2.61450149       7.75051144       0.44232382      -0.00256617       0.05111616       0.00000000
H        2.57205129       2.03048151       7.60697135      -0.17340424       0.37687601      -0.04194900       0.00000000
H        2.81913925       1.36132516       7.65141406       0.10834282      -0.44154735       0.02827189       0.00000000
H        4.43856872       1.30934632       7.61246157       0.34547020       0.30962603       0.05125703       0.00000000
H        3.80699611       1.65851261       6.12098516       0.22373595      -0.38336960      -0.05125057       0.00000000
H        3.96090825       0.78611646       7.51016531      -0.26943831      -0.33072059      -0.05775483       0.00000000
H        3.97509827       1.03797305      10.52480661      -0.22393077       0.38365748       0.05129623       0.00000000
H        2.80825870       1.89390797      10.38128183       0.41477362       0.03801157      -0.04216694       0.00000000
H       -1.00649398       1.77411606      10.42571966      -0.43834466      -0.12682997       0.02827857       0.00000000
H        2.80468246       0.45505810      10.38676340       0.09634791       0.45559757       0.05145420       0.00000000
H        4.14850211       2.47655139      10.28446459      -0.15281783      -0.40015929      -0.05804148       0.00000000
H        4.12795449       0.02781384       8.99914163       0.45858135      -0.12781728       0.04601948       0.00000000
H        3.42241065       0.08198417       8.89527512      -0.44240673       0.00249911      -0.05112442       0.00000000
H        5.21001952       0.66601504       9.03882265       0.17348949      -0.37707712       0.04196549       0.00000000
H        4.96293989       1.33516891       8.99437117      -0.10840497       0.44174126      -0.02828547       0.00000000
H        4.37411355       0.45363273      10.42097394       0.34059196      -0.33495731      -0.04630706       0.00000000
H        3.34352615       1.38713017       9.03332488      -0.34545342      -0.30955335      -0.05125392       0.00000000
H        3.40796789       2.24285325       6.22481939      -0.34046545       0.33469427       0.04625832       0.00000000
H        3.34352728       1.38713610       3.48474164      -0.34539914      -0.30955077      -0.05125102       0.00000000
H        4.97382350       0.80258761       0.71591649      -0.41465802      -0.03798066       0.04216815       0.00000000
H        2.56534372       0.92238147       0.67148455       0.43849699       0.12685359      -0.02828217       0.00000000
H       -1.24579174       2.24143937       0.71042705      -0.09634768      -0.45560387      -0.05143455       0.00000000
H        3.63358945       0.21994123       0.81272120       0.15279972       0.40036681       0.05801984       0.00000000
H        3.65412292       2.66868681       2.09806579      -0.45822781       0.12776989      -0.04593763       0.00000000
H        4.35968044       2.61450677       2.20189735       0.44204504      -0.00252764       0.05105515       0.00000000
H        2.57205471       2.03047806       2.05836725      -0.17342595       0.37693058      -0.04196079       0.00000000
H        2.81913474       1.36132122       2.10282383       0.10836306      -0.44161184       0.02829897       0.00000000
H        4.43856182       1.30935118       2.06387789       0.34549439       0.30961539       0.05128759       0.00000000
H        3.82116792       1.91038754       3.58703657       0.26935304       0.33063625       0.05771798       0.00000000
H        3.96090568       0.78612460       1.96154689      -0.26941134      -0.33076371      -0.05778504       0.00000000
H        3.97509542       1.03798028       4.97620229      -0.22377795       0.38334570       0.05122278       0.00000000
H        2.80825532       1.89391471       4.83267462       0.41469490       0.03799824      -0.04213944       0.00000000
H       -1.00649214       1.77411331       4.87712577      -0.43846962      -0.12681149       0.02827543       0.00000000
H        2.80467331       0.45505206       4.83817273       0.09636714       0.45561846       0.05147786       0.00000000
H        4.14849352       2.47655010       4.73587014      -0.15277555      -0.40008419      -0.05799252       0.00000000
H        4.12795113       0.02781103       3.45053642       0.45856663      -0.12777231       0.04602089       0.00000000
H        3.42240614       0.08198627       3.34667556      -0.44234520       0.00254725      -0.05112361       0.00000000
H        5.21002583       0.66601272       3.49022498       0.17331850      -0.37685507       0.04193514       0.00000000
H        4.96295391       1.33517700       3.44577772      -0.10836010       0.44147556      -0.02827343       0.00000000
H        4.37411785       0.45363327       4.87237672       0.34038592      -0.33467746      -0.04624752       0.00000000
H        3.80699531       1.65852037       0.57239893       0.22371285      -0.38332811      -0.05125016       0.00000000
H        3.82116247       1.91037993       9.13563479       0.26941577       0.33073200       0.05778586       0.00000000
H        2.25424372       4.35500754       0.57237418       0.22379146      -0.38338676      -0.05123930       0.00000000
H        3.42108368       3.49906254       6.26452348      -0.41483266      -0.03797293       0.04217463       0.00000000
H        1.01261882       3.61887047       6.22007434       0.43812045       0.12674037      -0.02827406       0.00000000
H       -2.79854715       4.93793619       6.25902405      -0.09638333      -0.45563008      -0.05149435       0.00000000
H        2.08085461       2.91644015       6.36132941       0.15265762       0.39966042       0.05793655       0.00000000
H        2.10139113       5.36518444       7.64666523      -0.45847692       0.12775843      -0.04599189       0.00000000
H        2.80693918       5.31099534       7.75050934       0.44227502      -0.00255476       0.05113740       0.00000000
H        1.01930986       4.72697947       7.60697457      -0.17331483       0.37674680      -0.04194394       0.00000000
H        1.26638726       4.05781584       7.65142293       0.10831384      -0.44142139       0.02824986       0.00000000
H        2.88582952       4.00583792       7.61246268       0.34541978       0.30955887       0.05126214       0.00000000
H        2.25424769       4.35500463       6.12100125       0.22376029      -0.38333028      -0.05127875       0.00000000
H        2.40816345       3.48261204       7.51016054      -0.26941144      -0.33066907      -0.05774507       0.00000000
H        2.42234899       3.73446411      10.52480750      -0.22372215       0.38339349       0.05124418       0.00000000
H        1.25551638       4.59039773      10.38127229       0.41479420       0.03803012      -0.04219961       0.00000000
H       -2.55923214       4.47062302      10.42572088      -0.43848437      -0.12684415       0.02830299       0.00000000
H        1.25193946       3.15154753      10.38675231       0.09629426       0.45542240       0.05144823       0.00000000
H        2.59574631       5.17303505      10.28446581      -0.15274553      -0.39991432      -0.05800256       0.00000000
H        2.57521263       2.72429567       8.99912022       0.45828894      -0.12776471       0.04594276       0.00000000
H        1.86965564       2.77847641       8.89529021      -0.44206334       0.00252754      -0.05107051       0.00000000
H        3.65728899       3.36250162       9.03883430       0.17338647      -0.37694851       0.04194428       0.00000000
H        3.41020604       4.03165673       8.99437328      -0.10839225       0.44163057      -0.02830151       0.00000000
H        2.82137668       3.15012503      10.42096340       0.34043700      -0.33472142      -0.04628389       0.00000000
H        1.85523237       4.93935498       0.67623071      -0.34042854       0.33474986       0.04632292       0.00000000
H        1.85522412       4.93935029       6.22482960      -0.34041082       0.33469622       0.04622345       0.00000000
H        1.79077432       4.08362737       3.48472333      -0.34552418      -0.30962025      -0.05130463       0.00000000
H        3.42107998       3.49906313       0.71592903      -0.41461188      -0.03792732       0.04217646       0.00000000
H        1.01262107       3.61887964       0.67145692       0.43807404       0.12673334      -0.02825826       0.00000000
H       -2.79853742       4.93792773       0.71042915      -0.09632926      -0.45546545      -0.05144668       0.00000000
H        2.08084148       2.91643724       0.81273186       0.15278722       0.40020883       0.05802616       0.00000000
H        2.10138631       5.36518763       2.09806380      -0.45873921       0.12775969      -0.04601648       0.00000000
H        2.80692827       5.31100403       2.20191167       0.44250551      -0.00261400       0.05114762       0.00000000
H        1.01931396       4.72697580       2.05837046      -0.17335478       0.37679713      -0.04192184       0.00000000
H        1.26638965       4.05781330       2.10282516       0.10833388      -0.44145202       0.02824273       0.00000000
H        2.88581466       4.00585539       2.06385381       0.34542365       0.30955275       0.05125142       0.00000000
H        2.26842978       4.60685394       3.58704323       0.26948912       0.33083862       0.05777959       0.00000000
H        2.40817333       3.48260406       1.96156698      -0.26938660      -0.33068471      -0.05774912       0.00000000
H        2.42234930       3.73446367       4.97622016      -0.22373137       0.38334915       0.05131315       0.00000000
H        1.25551702       4.59041121       4.83266575       0.41487361       0.03800008      -0.04217015       0.00000000
H       -2.55924087       4.47060555       4.87712255      -0.43811731      -0.12677137       0.02826034       0.00000000
H        1.25193249       3.15155077       4.83816230       0.09628590       0.45536162       0.05145656       0.00000000
H        2.59574666       5.17303780       4.73586836      -0.15270814      -0.39990742      -0.05797412       0.00000000
H        2.57520546       2.72428521       3.45052943       0.45845194      -0.12777283       0.04598717       0.00000000
H        1.86965682       2.77848213       3.34668211      -0.44224510       0.00252974      -0.05108129       0.00000000
H        3.65729066       3.36249461       3.49022243       0.17333113      -0.37674304       0.04193651       0.00000000
H        3.41019800       4.03165241       3.44577073      -0.10832872       0.44144600      -0.02827012       0.00000000
H        2.82137298       3.15012530       4.87234876       0.34039723      -0.33467753      -0.04626739       0.00000000
H        3.40796547       2.24286382       0.67622394      -0.34037766       0.33461265       0.04622805       0.00000000
H       -0.84318153       4.60688350       9.13563401       0.26925172       0.33053425       0.05774539       0.00000000
H       -1.32081622       4.08362192       9.03333153      -0.34528951      -0.30938563      -0.05121302       0.00000000
H        0.69537562       1.65851681       6.12095808       0.22372105      -0.38325379      -0.05125640       0.00000000
H        1.86221292       0.80258303       6.26451904      -0.41469605      -0.03798271       0.04216798       0.00000000
H        5.67697061       0.92237122       6.22007212       0.43815234       0.12676555      -0.02826196       0.00000000
H        1.86578506       2.24143808       6.25903570      -0.09615658      -0.45495819      -0.05137742       0.00000000
H        0.52197913       0.21993999       6.36133596       0.15285842       0.40033741       0.05803794       0.00000000
H        0.54251508       2.66869825       7.64664903      -0.45857834       0.12780403      -0.04601729       0.00000000
H        1.24805887       2.61451276       7.75051688       0.44239076      -0.00256513       0.05112940       0.00000000
H       -0.53954378       2.03048167       7.60697423      -0.17336679       0.37674621      -0.04191777       0.00000000
H       -0.29247048       1.36131524       7.65141450       0.10828467      -0.44142937       0.02825904       0.00000000
H        0.29635493       2.24285778       6.22483958      -0.34033572       0.33468412       0.04628076       0.00000000
H        1.32695503       1.30936283       7.61247001       0.34567010       0.30977197       0.05134539       0.00000000
H        1.26249504       0.45362529      10.42097039       0.34025738      -0.33447219      -0.04623406       0.00000000
H        0.86348505       1.03798853      10.52480262      -0.22357272       0.38313073       0.05120355       0.00000000
H       -0.30335481       1.89391563      10.38126829       0.41493731       0.03802548      -0.04218544       0.00000000
H        2.10511184       1.77412986      10.42571644      -0.43820657      -0.12681503       0.02825465       0.00000000
H        5.91628176       0.45505125      10.38675797       0.09624132       0.45519545       0.05140231       0.00000000
H        1.03688193       2.47655452      10.28446625      -0.15283111      -0.40020450      -0.05800910       0.00000000
H        1.01634603       0.02780818       8.99910590       0.45858427      -0.12780296       0.04598399       0.00000000
H        0.31079393       0.08199275       8.89530164      -0.44236169       0.00254427      -0.05110652       0.00000000
H        2.09841943       0.66601040       9.03882220       0.17333401      -0.37681224       0.04193148       0.00000000
H        0.84930996       0.78613604       7.51014078      -0.26961344      -0.33096371      -0.05778576       0.00000000
H        1.85134237       1.33517236       8.99438194      -0.10833019       0.44149926      -0.02828062       0.00000000
H        0.70956518       1.91036861       3.58703646       0.26920667       0.33056524       0.05775862       0.00000000
H        1.85134137       1.33517020       3.44577573      -0.10834004       0.44149101      -0.02826778       0.00000000
H        0.69538769       1.65850808       0.57239537       0.22367003      -0.38320288      -0.05120678       0.00000000
H        1.86221107       0.80256518       0.71592071      -0.41500082      -0.03799470       0.04215592       0.00000000
H        5.67697408       0.92236022       0.67147578       0.43807512       0.12678629      -0.02825996       0.00000000
H        1.86580383       2.24143942       0.71043759      -0.09632705      -0.45545623      -0.05145743       0.00000000
H        0.52197562       0.21994187       0.81273152       0.15280682       0.40015354       0.05802244       0.00000000
H        0.54251917       2.66868563       2.09806668      -0.45863891       0.12778492      -0.04601970       0.00000000
H        1.24806615       2.61451039       2.20190867       0.44240421      -0.00256234       0.05111461       0.00000000
H       -0.53955351       2.03048281       2.05838389      -0.17337887       0.37689767      -0.04195912       0.00000000
H       -0.29247315       1.36132333       2.10282072       0.10836948      -0.44151665       0.02822521       0.00000000
H        0.23190271       1.38713335       3.48472510      -0.34524695      -0.30933182      -0.05119773       0.00000000
H        1.32694772       1.30935900       2.06387434       0.34524370       0.30936913       0.05121394       0.00000000
H        1.26250058       0.45362508       4.87236673       0.34040878      -0.33468146      -0.04626875       0.00000000
H        0.86347971       1.03797165       4.97620673      -0.22371576       0.38333525       0.05120896       0.00000000
H       -0.30335699       1.89391132       4.83267518       0.41505039       0.03809576      -0.04220631       0.00000000
H        2.10511058       1.77411638       4.87712199      -0.43815226      -0.12676515       0.02827659       0.00000000
H        5.91627759       0.45505578       4.83816596       0.09623220       0.45514233       0.05139592       0.00000000
H        1.03688619       2.47655392       4.73586503      -0.15279433      -0.40013470      -0.05800876       0.00000000
H        1.01633084       0.02779987       3.45052655       0.45882438      -0.12779158       0.04604493       0.00000000
H        0.31078760       0.08197964       3.34669177      -0.44252824       0.00256986      -0.05111909       0.00000000
H        2.09841794       0.66600954       3.49022520       0.17334278      -0.37684947       0.04194026       0.00000000
H        0.84930240       0.78610670       1.96156387      -0.26918721      -0.33048424      -0.05773293       0.00000000
H        0.23189180       1.38714538       9.03332654      -0.34541810      -0.30953745      -0.05126167       0.00000000
H        0.70957111       1.91035798       9.13563002       0.26940229       0.33075887       0.05775585       0.00000000
H       -1.25638334       4.93934711       0.67622938      -0.34046535       0.33470428       0.04627966       0.00000000
H        0.30947202       3.49908567       6.26452082      -0.41469771      -0.03802439       0.04214823       0.00000000
H        4.12422384       3.61886146       6.22006823       0.43827910       0.12683287      -0.02826424       0.00000000
H        0.31305418       4.93793781       6.25902848      -0.09628335      -0.45535851      -0.05143456       0.00000000
H       -1.03075587       2.91643045       6.36132763       0.15279417       0.40023162       0.05799962       0.00000000
H       -1.01022386       5.36518115       7.64665347      -0.45869721       0.12780106      -0.04601943       0.00000000
H       -0.30467961       5.31101098       7.75050368       0.44247300      -0.00257886       0.05114176       0.00000000
H       -2.09229798       4.72697391       7.60697701      -0.17344184       0.37700334      -0.04194367       0.00000000
H       -1.84521437       4.05781907       7.65141539       0.10841557      -0.44166020       0.02827094       0.00000000
H       -0.22579776       4.00586073       7.61246646       0.34534302       0.30943115       0.05123391       0.00000000
H       -0.85736488       4.35501541       6.12098783       0.22374882      -0.38332893      -0.05125513       0.00000000
H       -0.70344183       3.48261113       7.51015488      -0.26926121      -0.33061381      -0.05774155       0.00000000
H       -0.68924751       3.73447300      10.52479641      -0.22366009       0.38322215       0.05122207       0.00000000
H       -1.85609374       4.59040048      10.38126186       0.41503837       0.03805331      -0.04219777       0.00000000
H        0.55237291       4.47061569      10.42571988      -0.43827655      -0.12678668       0.02824573       0.00000000
H        4.36354352       3.15154840      10.38676806       0.09630807       0.45541505       0.05144531       0.00000000
H       -0.51586631       5.17305932      10.28447324      -0.15284907      -0.40038643      -0.05805927       0.00000000
H       -0.53639691       2.72429750       8.99913487       0.45858636      -0.12778322       0.04601979       0.00000000
H       -1.24194055       2.77848369       8.89527490      -0.44238664       0.00254199      -0.05113987       0.00000000
H        0.54567018       3.36250701       9.03881632       0.17344014      -0.37700853       0.04195861       0.00000000
H        0.29860136       4.03166643       8.99436918      -0.10841774       0.44166462      -0.02825483       0.00000000
H       -0.29022879       3.15011828      10.42096584       0.34030130      -0.33452094      -0.04621290       0.00000000
H       -1.25639214       4.93935881       6.22482327      -0.34036493       0.33463645       0.04623434       0.00000000
H       -0.84318854       4.60687740       3.58703957       0.26926204       0.33054886       0.05774504       0.00000000
H       -1.32083018       4.08362500       3.48472566      -0.34527845      -0.30938935      -0.05121415       0.00000000
H       -0.85735406       4.35501186       0.57238239       0.22377508      -0.38344646      -0.05128069       0.00000000
H        0.30947963       3.49907009       0.71593780      -0.41469319      -0.03801636       0.04220088       0.00000000
H        4.12422500       3.61886680       0.67146646       0.43806429       0.12680708      -0.02825206       0.00000000
H        0.31306298       4.93793377       0.71043748      -0.09637569      -0.45559768      -0.05145965       0.00000000
H       -1.03077008       2.91643816       0.81272431       0.15285765       0.40033577       0.05806787       0.00000000
H       -1.01022290       5.36518099       2.09806102      -0.45853527       0.12776376      -0.04598348       0.00000000
H       -0.30467445       5.31100786       2.20190723       0.44231292      -0.00258213       0.05112053       0.00000000
H       -2.09229976       4.72697041       2.05838722      -0.17346372       0.37709400      -0.04196217       0.00000000
H       -1.84521391       4.05781880       2.10281695       0.10843062      -0.44177663       0.02825260       0.00000000
H       -0.22578683       4.00584843       2.06387345       0.34556741       0.30967463       0.05128002       0.00000000
H       -0.70344048       3.48262143       1.96155632      -0.26951049      -0.33088214      -0.05781077       0.00000000
H       -0.29023059       3.15012594       4.87237062       0.34036565      -0.33459949      -0.04625891       0.00000000
H       -0.68925949       3.73446820       4.97621738      -0.22369723       0.38329981       0.05122587       0.00000000
H       -1.85609570       4.59040258       4.83267030       0.41466975       0.03799024      -0.04218288       0.00000000
H        0.55237925       4.47060932       4.87711789      -0.43833920      -0.12680870       0.02830038       0.00000000
H        4.36354374       3.15154575       4.83816818       0.09628447       0.45535111       0.05143171       0.00000000
H       -0.51585319       5.17304886       4.73586459      -0.15286314      -0.40038327      -0.05806476       0.00000000
H       -0.53640400       2.72429944       3.45054142       0.45873593      -0.12779048       0.04605024       0.00000000
H       -1.24194475       2.77847814       3.34667923      -0.44247576       0.00255732      -0.05115989       0.00000000
H        0.54567128       3.36251267       3.49022232       0.17350680      -0.37723657       0.04195943       0.00000000
H        0.29859632       4.03166428       3.44577828      -0.10850472       0.44186264      -0.02828392       0.00000000
H        1.79077160       4.08362192       9.03333731      -0.34530039      -0.30940394      -0.05123421       0.00000000
H        2.26842991       4.60686322       9.13562314       0.26928273       0.33059884       0.05770980       0.00000000
192
Lattice="6.22321522 0.0 0.0 -3.10548432 5.39298588 0.0 0.0 0.0 11.097194" Properties=species:S:1:pos:R:3:forces:R:3:energies:R:1 energy=-431.44059748 pbc="T T T"
H        0.23826363       2.23048277       0.66900965       0.04700654       0.02050157      -0.05058572       0.00000000
H        4.99326978       0.76889261       6.30058237       0.07024269      -0.00825439      -0.02410343       0.00000000
H        2.58358496       0.95548599       6.19811654      -0.10644735      -0.07639648      -0.00186008       0.00000000
H       -1.21987828       2.20542167       6.24897587      -0.04343676       0.08403998       0.05080631       0.00000000
H        3.58027684       0.21815620       6.38534818      -0.00687425      -0.01134204       0.02827820       0.00000000
H        3.63588041       2.72520191       7.65383591       0.00626035      -0.05118553       0.05068147       0.00000000
H        4.34309191       2.57381351       7.75886164       0.01360108      -0.05418065       0.03340718       0.00000000
H        2.61092919       2.03043065       7.57092777       0.04255312      -0.05758651       0.02432981       0.00000000
H        2.79955192       1.32899998       7.67338883       0.01288697       0.13132207       0.00179033       0.00000000
H        4.48272157       1.30485526       7.62251130      -0.09524846      -0.00491135      -0.05101570       0.00000000
H        3.83398450       1.69319490       6.11263086       0.05415617       0.01470068      -0.03352905       0.00000000
H        3.93587382       0.83321114       7.48614632       0.00721429       0.01243018      -0.02811798       0.00000000
H        3.94809827       1.00331039      10.53315559      -0.05407188      -0.01477474       0.03355666       0.00000000
H        2.78881804       1.92759612      10.34523704      -0.07025536       0.00822792       0.02414183       0.00000000
H        5.19848593       1.74099789      10.44765826       0.10610108       0.07631513       0.00188344       0.00000000
H        2.77875310       0.49107251      10.39682334       0.04349058      -0.08378810      -0.05077801       0.00000000
H        4.20181087       2.47834742      10.26044116       0.00691999       0.01143422      -0.02819557       0.00000000
H        1.04071365       5.36429288       8.99196685      -0.00599499       0.05111653      -0.05067919       0.00000000
H        3.43899134       0.12267139       8.88689907      -0.01384847       0.05421939      -0.03349355       0.00000000
H        5.17115350       0.66606158       9.07486079      -0.04256274       0.05771904      -0.02433460       0.00000000
H        4.98249934       1.36748676       8.97240794      -0.01282674      -0.13141770      -0.00174383       0.00000000
H        4.43220280       0.46600624      10.42815849      -0.04707742      -0.02044558       0.05067671       0.00000000
H        3.29938948       1.39161562       9.02327004       0.09521973       0.00489168       0.05097051       0.00000000
H        3.34985966       2.23047726       6.21763007       0.04701799       0.02048988      -0.05058674       0.00000000
H        3.29938317       1.39162668       3.47468458       0.09518155       0.00481264       0.05094773       0.00000000
H        4.99326667       0.76888841       0.75198060       0.07011798      -0.00822200      -0.02411683       0.00000000
H        2.58359263       0.95549796       0.64953153      -0.10630128      -0.07634056      -0.00188464       0.00000000
H       -1.21984875       2.20542161       0.70037310      -0.04347722       0.08382394       0.05077853       0.00000000
H        3.58027265       0.21816089       0.83672588      -0.00689295      -0.01138766       0.02828485       0.00000000
H        3.63586388       2.72519560       2.10526721       0.00646508      -0.05126225       0.05079147       0.00000000
H        4.34309749       2.57382198       2.21021770       0.01330981      -0.05421683       0.03341659       0.00000000
H        2.61092037       2.03042014       2.02231612       0.04251474      -0.05733859       0.02426399       0.00000000
H        2.79954380       1.32900413       2.12481181       0.01300953       0.13104992       0.00176052       0.00000000
H        4.48271564       1.30484566       2.07396258      -0.09525339      -0.00482469      -0.05093079       0.00000000
H        3.84620736       1.86329528       3.61104879      -0.00719088      -0.01232823       0.02807192       0.00000000
H        3.93587829       0.83322317       1.93749672       0.00716072       0.01239008      -0.02812903       0.00000000
H        3.94808202       1.00330672       4.98453706      -0.05404625      -0.01474282       0.03347248       0.00000000
H        2.78880688       1.92760308       4.79663149      -0.06995526       0.00834882       0.02413684       0.00000000
H        5.19848269       1.74102373       4.89907169       0.10630611       0.07632477       0.00190883       0.00000000
H        2.77874161       0.49106383       4.84824299       0.04345556      -0.08374032      -0.05073849       0.00000000
H        4.20180041       2.47834418       4.71185492       0.00687639       0.01156587      -0.02821624       0.00000000
H        1.04071770       5.36429342       3.44338173      -0.00616153       0.05117447      -0.05066967       0.00000000
H        3.43899329       0.12266896       3.33830917      -0.01370189       0.05423018      -0.03351237       0.00000000
H        5.17115353       0.66605560       3.52625391      -0.04259344       0.05769718      -0.02433270       0.00000000
H        4.98252387       1.36749323       3.42382903      -0.01281371      -0.13137897      -0.00175128       0.00000000
H        4.43220411       0.46601055       4.87958402      -0.04707534      -0.02037152       0.05057682       0.00000000
H        3.83400206       1.69320105       0.56403797       0.05399274       0.01488065      -0.03346008       0.00000000
H        3.84619355       1.86330316       9.15966454      -0.00728756      -0.01237623       0.02801788       0.00000000
H        2.28124469       4.38967360       0.56402609       0.05408098       0.01477797      -0.03354424       0.00000000
H        3.44052975       3.46539407       6.30057249       0.07029073      -0.00832116      -0.02419806       0.00000000
H        1.03085508       3.65197467       6.19812253      -0.10629300      -0.07629488      -0.00188624       0.00000000