81
Lattice="9.312844978309194 0.0 0.0 0.0 9.312844978309194 0.0 0.0 0.0 9.312844978309194" Properties=species:S:1:pos:R:3:forces:R:3:energies:R:1 energy=71.71319028943991 pbc="T T T"
O        0.00000000       0.00000000       0.11926200      -0.00000000      -0.00000000       8.11183591      -0.04479790
H        0.00000000       0.76323900       8.83579798       0.00000000       5.21893682      -4.05591796       1.35042099
H        0.00000000       8.54960598       8.83579798       0.00000000      -5.21893682      -4.05591796       1.35042099
O        0.00000000       0.00000000       3.22354366      -0.00000000       0.00000000       8.11183591      -0.04479790
H        0.00000000       0.76323900       2.62723466       0.00000000       5.21893682      -4.05591796       1.35042099
H        0.00000000       8.54960598       2.62723466       0.00000000      -5.21893682      -4.05591796       1.35042099
O        0.00000000       0.00000000       6.32782532      -0.00000000       0.00000000       8.11183591      -0.04479790
H        0.00000000       0.76323900       5.73151632       0.00000000       5.21893682      -4.05591796       1.35042099
H        0.00000000       8.54960598       5.73151632       0.00000000      -5.21893682      -4.05591796       1.35042099
O        0.00000000       3.10428166       0.11926200      -0.00000000       0.00000000       8.11183591      -0.04479790
H        0.00000000       3.86752066       8.83579798       0.00000000       5.21893682      -4.05591796       1.35042099
H        0.00000000       2.34104266       8.83579798       0.00000000      -5.21893682      -4.05591796       1.35042099
O        0.00000000       3.10428166       3.22354366      -0.00000000      -0.00000000       8.11183591      -0.04479790
H        0.00000000       3.86752066       2.62723466       0.00000000       5.21893682      -4.05591796       1.35042099
H        0.00000000       2.34104266       2.62723466       0.00000000      -5.21893682      -4.05591796       1.35042099
O        0.00000000       3.10428166       6.32782532      -0.00000000      -0.00000000       8.11183591      -0.04479790
H        0.00000000       3.86752066       5.73151632       0.00000000       5.21893682      -4.05591796       1.35042099
H        0.00000000       2.34104266       5.73151632       0.00000000      -5.21893682      -4.05591796       1.35042099
O        0.00000000       6.20856332       0.11926200      -0.00000000      -0.00000000       8.11183591      -0.04479790
H        0.00000000       6.97180232       8.83579798       0.00000000       5.21893682      -4.05591796       1.35042099
H        0.00000000       5.44532432       8.83579798       0.00000000      -5.21893682      -4.05591796       1.35042099
O        0.00000000       6.20856332       3.22354366      -0.00000000      -0.00000000       8.11183591      -0.04479790
H        0.00000000       6.97180232       2.62723466       0.00000000       5.21893682      -4.05591796       1.35042099
H        0.00000000       5.44532432       2.62723466       0.00000000      -5.21893682      -4.05591796       1.35042099
O        0.00000000       6.20856332       6.32782532      -0.00000000      -0.00000000       8.11183591      -0.04479790
H        0.00000000       6.97180232       5.73151632       0.00000000       5.21893682      -4.05591796       1.35042099
H        0.00000000       5.44532432       5.73151632       0.00000000      -5.21893682      -4.05591796       1.35042099
O        3.10428166       0.00000000       0.11926200      -0.00000000       0.00000000       8.11183591      -0.04479790
H        3.10428166       0.76323900       8.83579798      -0.00000000       5.21893682      -4.05591796       1.35042099
H        3.10428166       8.54960598       8.83579798       0.00000000      -5.21893682      -4.05591796       1.35042099
O        3.10428166       0.00000000       3.22354366      -0.00000000       0.00000000       8.11183591      -0.04479790
H        3.10428166       0.76323900       2.62723466      -0.00000000       5.21893682      -4.05591796       1.35042099
H        3.10428166       8.54960598       2.62723466      -0.00000000      -5.21893682      -4.05591796       1.35042099
O        3.10428166       0.00000000       6.32782532      -0.00000000      -0.00000000       8.11183591      -0.04479790
H        3.10428166       0.76323900       5.73151632       0.00000000       5.21893682      -4.05591796       1.35042099
H        3.10428166       8.54960598       5.73151632       0.00000000      -5.21893682      -4.05591796       1.35042099
O        3.10428166       3.10428166       0.11926200      -0.00000000       0.00000000       8.11183591      -0.04479790
H        3.10428166       3.86752066       8.83579798       0.00000000       5.21893682      -4.05591796       1.35042099
H        3.10428166       2.34104266       8.83579798      -0.00000000      -5.21893682      -4.05591796       1.35042099
O        3.10428166       3.10428166       3.22354366      -0.00000000      -0.00000000       8.11183591      -0.04479790
H        3.10428166       3.86752066       2.62723466      -0.00000000       5.21893682      -4.05591796       1.35042099
H        3.10428166       2.34104266       2.62723466       0.00000000      -5.21893682      -4.05591796       1.35042099
O        3.10428166       3.10428166       6.32782532      -0.00000000      -0.00000000       8.11183591      -0.04479790
H        3.10428166       3.86752066       5.73151632      -0.00000000       5.21893682      -4.05591796       1.35042099
H        3.10428166       2.34104266       5.73151632       0.00000000      -5.21893682      -4.05591796       1.35042099
O        3.10428166       6.20856332       0.11926200       0.00000000       0.00000000       8.11183591      -0.04479790
H        3.10428166       6.97180232       8.83579798      -0.00000000       5.21893682      -4.05591796       1.35042099
H        3.10428166       5.44532432       8.83579798      -0.00000000      -5.21893682      -4.05591796       1.35042099
O        3.10428166       6.20856332       3.22354366       0.00000000      -0.00000000       8.11183591      -0.04479790
H        3.10428166       6.97180232       2.62723466      -0.00000000       5.21893682      -4.05591796       1.35042099
H        3.10428166       5.44532432       2.62723466      -0.00000000      -5.21893682      -4.05591796       1.35042099
O        3.10428166       6.20856332       6.32782532       0.00000000      -0.00000000       8.11183591      -0.04479790
H        3.10428166       6.97180232       5.73151632      -0.00000000       5.21893682      -4.05591796       1.35042099
H        3.10428166       5.44532432       5.73151632       0.00000000      -5.21893682      -4.05591796       1.35042099
O        6.20856332       0.00000000       0.11926200       0.00000000      -0.00000000       8.11183591      -0.04479790
H        6.20856332       0.76323900       8.83579798      -0.00000000       5.21893682      -4.05591796       1.35042099
H        6.20856332       8.54960598       8.83579798      -0.00000000      -5.21893682      -4.05591796       1.35042099
O        6.20856332       0.00000000       3.22354366       0.00000000       0.00000000       8.11183591      -0.04479790
H        6.20856332       0.76323900       2.62723466      -0.00000000       5.21893682      -4.05591796       1.35042099
H        6.20856332       8.54960598       2.62723466      -0.00000000      -5.21893682      -4.05591796       1.35042099
O        6.20856332       0.00000000       6.32782532       0.00000000       0.00000000       8.11183591      -0.04479790
H        6.20856332       0.76323900       5.73151632      -0.00000000       5.21893682      -4.05591796       1.35042099
H        6.20856332       8.54960598       5.73151632      -0.00000000      -5.21893682      -4.05591796       1.35042099
O        6.20856332       3.10428166       0.11926200       0.00000000       0.00000000       8.11183591      -0.04479790
H        6.20856332       3.86752066       8.83579798      -0.00000000       5.21893682      -4.05591796       1.35042099
H        6.20856332       2.34104266       8.83579798       0.00000000      -5.21893682      -4.05591796       1.35042099
O        6.20856332       3.10428166       3.22354366       0.00000000      -0.00000000       8.11183591      -0.04479790
H        6.20856332       3.86752066       2.62723466      -0.00000000       5.21893682      -4.05591796       1.35042099
H        6.20856332       2.34104266       2.62723466       0.00000000      -5.21893682      -4.05591796       1.35042099
O        6.20856332       3.10428166       6.32782532       0.00000000      -0.00000000       8.11183591      -0.04479790
H        6.20856332       3.86752066       5.73151632      -0.00000000       5.21893682      -4.05591796       1.35042099
H        6.20856332       2.34104266       5.73151632      -0.00000000      -5.21893682      -4.05591796       1.35042099
O        6.20856332       6.20856332       0.11926200       0.00000000       0.00000000       8.11183591      -0.04479790
H        6.20856332       6.97180232       8.83579798      -0.00000000       5.21893682      -4.05591796       1.35042099
H        6.20856332       5.44532432       8.83579798      -0.00000000      -5.21893682      -4.05591796       1.35042099
O        6.20856332       6.20856332       3.22354366       0.00000000      -0.00000000       8.11183591      -0.04479790
H        6.20856332       6.97180232       2.62723466      -0.00000000       5.21893682      -4.05591796       1.35042099
H        6.20856332       5.44532432       2.62723466      -0.00000000      -5.21893682      -4.05591796       1.35042099
O        6.20856332       6.20856332       6.32782532       0.00000000      -0.00000000       8.11183591      -0.04479790
H        6.20856332       6.97180232       5.73151632      -0.00000000       5.21893682      -4.05591796       1.35042099
H        6.20856332       5.44532432       5.73151632      -0.00000000      -5.21893682      -4.05591796       1.35042099
81
Lattice="9.312844978309194 0.0 0.0 0.0 9.312844978309194 0.0 0.0 0.0 9.312844978309194" Properties=species:S:1:pos:R:3:forces:R:3:energies:R:1 energy=66.4553709230482 pbc="T T T"
O        9.31274484       0.00002951       0.14446673       0.00101514       0.00406351      -2.96678454       1.66829924
H        0.00012356       1.00309923       8.63559272      -0.00051273      -1.96861158       1.48435650       0.39663947
H        0.00032298       8.30996983       8.63468112      -0.00072079       1.96475263       1.48220489       0.39669891
O        9.31282970       9.31279521       3.24885508       0.00160723       0.00038368      -2.96771796       1.66723185
H        0.00049588       1.00283203       2.42663268      -0.00082520      -1.96476429       1.48398649       0.39661834
H        0.00039771       8.31022828       2.42679747      -0.00066945       1.96527785       1.48366627       0.39667238
O        9.31274863       9.31282757       6.35314884      -0.00029376       0.00201250      -2.96596079       1.66780484
H        0.00026456       1.00256598       5.53119995      -0.00059717      -1.96829532       1.48397821       0.39668330
H        9.31225594       8.30959924       5.53083968       0.00079610       1.96544115       1.48200537       0.39666336
O        9.31283943       3.10422956       0.14446288       0.00126830      -0.00091099      -2.96388747       1.66622297
H        9.31267006       4.10736196       8.63586410       0.00029222      -1.96687452       1.48062860       0.39670030
H        0.00080469       2.10184769       8.63515653      -0.00138785       1.96571712       1.48337418       0.39666191
O        9.31276825       3.10434679       3.24865876      -0.00012923      -0.00297518      -2.96680834       1.66856385
H        0.00000787       4.10779031       2.42670213      -0.00018271      -1.96842713       1.48149450       0.39669459
H        9.31259680       2.10156116       2.42641932       0.00020083       1.96633561       1.48531897       0.39663501
O        0.00010801       3.10415357       6.35309465      -0.00028558      -0.00015695      -2.96913105       1.66825882
H        0.00021324       4.10706743       5.53045584      -0.00021744      -1.96512194       1.48528574       0.39659444
H        9.31266745       2.10109175       5.53144708       0.00045743       1.96913586       1.48370470       0.39666709
O        0.00007733       6.20847311       0.14452543      -0.00006245      -0.00104369      -2.96494960       1.66911975
H        0.00000100       7.21245536       8.63564913       0.00008934      -1.96654529       1.48127040       0.39668311
H        0.00006518       5.20552181       8.63538497       0.00006048       1.96961736       1.48391867       0.39669562
O        0.00012364       6.20851340       3.24864507      -0.00019598       0.00201451      -2.96561673       1.66826008
H        9.31272205       7.21169495       2.42633660       0.00037378      -1.96628711       1.48415371       0.39661497
H        0.00018497       5.20539187       2.42704222      -0.00009014       1.96837995       1.48123826       0.39674840
O        9.31276094       6.20858880       6.35323436       0.00090271      -0.00260920      -2.96593281       1.66767934
H        0.00014500       7.21175768       5.53125449      -0.00030355      -1.96555187       1.48174638       0.39669413
H        0.00027558       5.20581490       5.53127080      -0.00065055       1.96505863       1.48446193       0.39665029
O        3.10457513       9.31258774       0.14455062      -0.00121643       0.00178929      -2.96069340       1.66547758
H        3.10386003       1.00296456       8.63619184       0.00134246      -1.96551758       1.48035460       0.39669235
H        3.10454308       8.31013628       8.63566852       0.00021041       1.96504970       1.48067305       0.39674919
O        3.10420655       0.00003327       3.24865483       0.00020603      -0.00253250      -2.96901583       1.66690786
H        3.10434310       1.00267611       2.42577536      -0.00027276      -1.96075774       1.48379690       0.39660814
H        3.10418437       8.31058718       2.42683261       0.00008675       1.96681443       1.48481636       0.39665164
O        3.10444413       0.00003822       6.35299310      -0.00153599      -0.00251785      -2.96471587       1.66890179
H        3.10387821       1.00358405       5.53045382       0.00104671      -1.96571690       1.48199497       0.39666893
H        3.10409664       8.30965567       5.53178283       0.00050314       1.97145814       1.48249980       0.39673770
O        3.10412739       3.10444514       0.14471829      -0.00026443      -0.00077514      -2.96827485       1.66878500
H        3.10444830       4.10748622       8.63520190      -0.00049426      -1.96862372       1.48424215       0.39664011
H        3.10362822       2.10134149       8.63545400       0.00089748       1.96841767       1.48422341       0.39664641
O        3.10438199       3.10423121       3.24872547       0.00005312       0.00069295      -2.96787805       1.66830080
H        3.10425851       4.10707509       2.42727042       0.00016940      -1.96849861       1.48303668       0.39672100
H        3.10450282       2.10113096       2.42580543      -0.00020726       1.96227966       1.48468007       0.39658276
O        3.10442008       3.10424843       6.35303653      -0.00105446      -0.00235613      -2.96452254       1.67008519
H        3.10443069       4.10798224       5.53056864      -0.00003399      -1.96939701       1.48134590       0.39670492
H        3.10380876       2.10105625       5.53113003       0.00111927       1.96773891       1.48304575       0.39674189
O        3.10415424       6.20837567       0.14440262      -0.00194038      -0.00118348      -2.96414761       1.66762181
H        3.10346624       7.21207945       8.63527863       0.00110459      -1.96729687       1.48145877       0.39663404
H        3.10379449       5.20579094       8.63567022       0.00055022       1.96801688       1.48290088       0.39673458
O        3.10422919       6.20852113       3.24887002       0.00008113       0.00273898      -2.96989849       1.66853798
H        3.10390459       7.21142801       2.42682813       0.00055709      -1.96842286       1.48601986       0.39660181
H        3.10461179       5.20532888       2.42662961      -0.00065165       1.96796679       1.48355195       0.39664043
O        3.10448315       6.20853971       6.35318273       0.00095402       0.00217697      -2.95737193       1.66661292
H        3.10495034       7.21162866       5.53163868      -0.00072262      -1.96838632       1.48078974       0.39672472
H        3.10446561       5.20490862       5.53234660       0.00004058       1.96684958       1.47708419       0.39682518
O        6.20844250       0.00023899       0.14461435       0.00091680      -0.00413031      -2.96585729       1.66745182
H        6.20891681       1.00349967       8.63540809      -0.00083040      -1.96523089       1.48076482       0.39670050
H        6.20848546       8.31060679       8.63542355      -0.00008453       1.96485475       1.48518304       0.39664443
O        6.20860305       9.31283189       3.24891416      -0.00041718       0.00119423      -2.96775047       1.66830003
H        6.20856264       1.00327810       2.42730175      -0.00005048      -1.96835052       1.48412628       0.39663461
H        6.20836746       8.30974291       2.42670983       0.00031596       1.96613312       1.48409205       0.39663846
O        6.20857497       9.31276694       6.35310642       0.00048238       0.00142131      -2.96874166       1.66736375
H        6.20933753       1.00280841       5.53133371      -0.00113810      -1.96665281       1.48344697       0.39665154
H        6.20811998       8.31048266       5.53013676       0.00080089       1.96432456       1.48481549       0.39662515
O        6.20842954       3.10433171       0.14463489      -0.00043422       0.00349726      -2.96682647       1.66868899
H        6.20802318       4.10736585       8.63554799       0.00056608      -1.96756443       1.48483923       0.39664024
H        6.20864616       2.10107908       8.63517332      -0.00044496       1.96640185       1.48209146       0.39669070
O        6.20845969       3.10439927       3.24856037       0.00232845      -0.00295288      -2.96574805       1.66725761
H        6.20894760       4.10760099       2.42646899      -0.00072558      -1.96563961       1.48081004       0.39668916
H        6.20929997       2.10204636       2.42643263      -0.00142921       1.96676972       1.48435487       0.39666615
O        6.20863032       3.10417698       6.35325173      -0.00052770      -0.00307156      -2.96776738       1.66891700
H        6.20942712       4.10749012       5.53089673      -0.00142559      -1.96717486       1.48229641       0.39668203
H        6.20759639       2.10145098       5.53093741       0.00164763       1.96790525       1.48562119       0.39664015
O        6.20842001       6.20867137       0.14452378       0.00168048       0.00063211      -2.97142625       1.66838633
H        6.20854112       7.21159248       8.63473105      -0.00020330      -1.96547824       1.48607713       0.39656666
H        6.20923785       5.20604078       8.63512718      -0.00131911       1.96693346       1.48509807       0.39664415
O        6.20845658       6.20862378       3.24882755       0.00006975       0.00195792      -2.96608446       1.66818894
H        6.20909347       7.21128559       2.42652505      -0.00106677      -1.96592625       1.48443959       0.39666239
H        6.20790581       5.20528250       2.42690183       0.00085512       1.96676040       1.48150694       0.39669560
O        6.20851436       6.20841521       6.35301145       0.00076895       0.00308354      -2.96320262       1.66796139
H        6.20843218       7.21190131       5.53157247       0.00020497      -1.96649715       1.48311098       0.39665105
H        6.20902476       5.20504548       5.53140672      -0.00100748       1.96677752       1.48072917       0.39673898
81
Lattice="9.312844978309194 0.0 0.0 0.0 9.312844978309194 0.0 0.0 0.0 9.312844978309194" Properties=species:S:1:pos:R:3:forces:R:3:energies:R:1 energy=53.44797688668994 pbc="T T T"
O        9.31241376       0.00033565       0.13845394      -0.00054374      -0.00310610      -1.99724904       1.10963575
H        9.31193189       0.90609539       8.68250236       0.00015492      -1.37629963       0.99687550       0.43435954
H        9.31271908       8.40714958       8.68101578      -0.00048440       1.38018000       1.00002178       0.43327001
O        9.31281096       9.31262787       3.24324766       0.00346689       0.00868633      -2.01109702       1.11259545
H        0.00152268       0.90664664       2.47294675      -0.00187737      -1.38746094       1.00880544       0.43234049
H        0.00111280       8.40756534       2.47300212      -0.00128623       1.38002339       1.00291905       0.43395092
O        9.31262348       9.31279776       6.34742146      -0.00076302      -0.01615045      -2.02315383       1.11639654
H        0.00022392       0.90568391       5.57844802      -0.00043925      -1.38746137       1.00489159       0.43432206
H        9.31163875       8.40460068       5.57597092       0.00107760       1.39992198       1.01751703       0.43074596
O        9.31276786       3.10412227       0.13858210       0.00294163      -0.00301807      -1.99185939       1.10834332
H        9.31248469       4.01122543       8.68423332       0.00044129      -1.37744016       0.99195573       0.43450196
H        0.00244063       2.19906665       8.68071001      -0.00283037       1.37728764       1.00061889       0.43350793
O        9.31247884       3.10416897       3.24268039       0.00203526      -0.00208979      -2.01583434       1.11364674
H        0.00048887       4.01053643       2.47291346      -0.00098817      -1.38808778       1.00610867       0.43317044
H        0.00029498       2.19824401       2.47173940      -0.00104323       1.38651763       1.00934548       0.43268236
O        0.00043042       3.10423838       6.34721139      -0.00044403       0.00760150      -2.01074473       1.11255585
H        0.00107974       4.01076795       5.57644254      -0.00090214      -1.38874907       1.00913102       0.43229938
H        9.31195026       2.19806142       5.57838646       0.00159983       1.38354677       1.00108405       0.43401610
O        0.00023629       6.20852771       0.13882880      -0.00059022       0.01280309      -2.01042704       1.11373848
H        0.00040474       7.11757678       8.68309328      -0.00015389      -1.39534939       1.00825150       0.43194387
H        9.31232675       5.30293925       8.68222259       0.00098176       1.38519598       1.00227589       0.43415011
O        0.00002667       6.20839283       3.24238009      -0.00131490       0.01074571      -2.00579652       1.11192454
H        9.31253755       7.11567149       2.47252971       0.00023379      -1.38863100       1.00750832       0.43231333
H        9.31233143       5.30240422       2.47369189       0.00055700       1.38017140       0.99852573       0.43435811
O        9.31277626       6.20853230       6.34763398       0.00215517       0.01207931      -2.02396200       1.11728893
H        0.00047153       7.11727412       5.57731633      -0.00046765      -1.40027484       1.01615157       0.43112250
H        0.00117827       5.30222368       5.57845761      -0.00163280       1.38939056       1.00811404       0.43373578
O        3.10494683       9.31228307       0.13869759      -0.00103927       0.00871580      -1.98620768       1.10698049
H        3.10393419       0.90647377       8.68325128       0.00159921      -1.37770767       0.99560173       0.43362138
H        3.10481885       8.40735490       8.68245511       0.00041300       1.36836026       0.99126940       0.43497354
O        3.10420348       9.31264411       3.24263558      -0.00032673       0.02000657      -2.01319241       1.11255861
H        3.10457130       0.90671448       2.47040522      -0.00052027      -1.38937214       1.01463115       0.43100606
H        3.10357809       8.40852429       2.47325809       0.00083699       1.37586801       0.99876726       0.43521199
O        3.10479846       0.00018886       6.34700988      -0.00283703       0.01946243      -2.03160016       1.11815586
H        3.10324438       0.90818604       5.57451729       0.00202552      -1.40515146       1.02490030       0.43000755
H        3.10420654       8.40648101       5.57893309       0.00060335       1.39111943       1.00567617       0.43430341
O        3.10377992       3.10437015       0.13922149      -0.00135794       0.01246665      -2.01788206       1.11390981
H        3.10432110       4.01106400       8.68036797      -0.00051697      -1.39440578       1.01505180       0.43145807
H        3.10202065       2.19896073       8.68262025       0.00205416       1.38336084       1.00296090       0.43418757
O        3.10424975       3.10417890       3.24257661       0.00004702      -0.02086980      -2.01883911       1.11502596
H        3.10383125       4.00960426       2.47405606       0.00027336      -1.38071324       1.00018188       0.43496187
H        3.10463743       2.19646378       2.47056486      -0.00052961       1.39608353       1.01924891       0.43051934
O        3.10472779       3.10399090       6.34714702      -0.00263746       0.01475665      -2.05083688       1.12378146
H        3.10396733       4.01323721       5.57520708       0.00095916      -1.41865614       1.03070129       0.42955428
H        3.10364337       2.19733568       5.57683674       0.00150033       1.40000580       1.01909953       0.43280675
O        3.10380695       6.20810752       0.13852604      -0.00261686       0.01353095      -2.00891433       1.11235721
H        3.10297473       7.11544438       8.68093970       0.00083073      -1.39210249       1.01043473       0.43182395
H        3.10266288       5.30262102       8.68241983       0.00124875       1.37720321       0.99832464       0.43463283
O        3.10423996       6.20842672       3.24311844       0.00129823      -0.00908223      -2.00906082       1.11152255
H        3.10347923       7.11377702       2.47399051       0.00100442      -1.37955888       1.00075438       0.43430544
H        3.10578053       5.30185701       2.47238981      -0.00177432       1.38835861       1.00843886       0.43222434
O        3.10469128       6.20841815       6.34751051       0.00034653      -0.00307072      -1.99812888       1.11141221
H        3.10537313       7.11441193       5.57834910      -0.00073105      -1.38231177       1.00044714       0.43396595
H        3.10425124       5.30012249       5.57951731       0.00062502       1.38372343       0.99820908       0.43329896
O        6.20813521       0.00073746       0.13876612       0.00272225       0.00810670      -2.00034709       1.11108196
H        6.20975051       0.90798430       8.68162772      -0.00189266      -1.38478489       1.00326310       0.43258078
H        6.20870689       8.40796863       8.68296106      -0.00065561       1.37592390       0.99733538       0.43464340
O        6.20867395       0.00012685       3.24343852      -0.00039938      -0.00275331      -2.01548237       1.11400762
H        6.20892352       0.90695639       2.47443159      -0.00052831      -1.38994822       1.00734510       0.43319335
H        6.20807097       8.40581510       2.47356840       0.00053828       1.38985742       1.00892735       0.43250827
O        6.20888522       9.31258993       6.34723962       0.00020934      -0.00899227      -2.00584539       1.11063424
H        6.20981876       0.90543488       5.57888826      -0.00089734      -1.37877036       0.99688966       0.43464163
H        6.20811426       8.40724948       5.57507148       0.00110752       1.38322662       1.00836557       0.43227260
O        6.20823121       3.10443307       0.13901551      -0.00063771      -0.00966114      -2.02993898       1.11814758
H        6.20792943       4.01103850       8.68277458       0.00007438      -1.39176725       1.01084795       0.43344800
H        6.20817119       2.19617015       8.68067398      -0.00014736       1.40367797       1.01950156       0.43083657
O        6.20831417       3.10420237       3.24224346       0.00520919       0.02776046      -2.01009078       1.11225361
H        6.21047829       4.01265445       2.47094464      -0.00241484      -1.39444459       1.01388037       0.43050198
H        6.21017679       2.20085734       2.47295989      -0.00223433       1.37112871       0.99442681       0.43609203
O        6.20905714       3.10392979       6.34742235       0.00056579       0.01738740      -1.99500255       1.10879492
H        6.21131653       4.01107859       5.57702720      -0.00261622      -1.38448418       1.00465653       0.43208521
H        6.20750988       2.19968063       5.57879655       0.00172990       1.37010683       0.99137415       0.43572490
O        6.20808412       6.20904911       0.13871847       0.00293982       0.00269411      -2.02617478       1.11550433
H        6.20818916       7.11538485       8.68057023      -0.00018020      -1.39359186       1.01402989       0.43218377
H        6.21028046       5.30345934       8.68039703      -0.00258211       1.38955422       1.01214402       0.43272193
O        6.20831030       6.20882804       3.24331132       0.00078594      -0.00597464      -2.03435757       1.11890666
H        6.20992506       7.11498159       2.47244553      -0.00190173      -1.39526779       1.01527427       0.43263245
H        6.20734666       5.30112253       2.47231540       0.00086471       1.39942467       1.01859741       0.43139284
O        6.20863697       6.20825614       6.34715873      -0.00128388       0.00371082      -2.01220041       1.11369079