192
Lattice="6.22321522 0.00000000 0.00000000 -3.10548432 5.39298588 0.00000000 0.00000000 0.00000000 11.09719400 " Properties=species:S:1:pos:R:3:forces:R:3:energies:R:1 energy=-430.86999832 pbc="T T T"
H .2498571862247316 2.2711967344471788 .6668782163661400 0.30118973 -0.35023736 -0.05728161  0.00000000
H 4.9833784320668378 .8363763385363860 6.2459663104883000 0.29155895 0.00376005 0.00223808  0.00000000
H 2.6093039468749322 .9150063962459388 6.2403420306252200 -0.40114014 -0.06266771 -0.00673827  0.00000000
H 4.9380305803923606 2.2092024742115208 6.2671306569412200 0.16258709 0.42054365 0.05876755  0.00000000
H 3.6683015323810160 .1981936332663288 6.3150309180386400 -0.18896729 -0.31026037 0.05628519  0.00000000
H 3.6063931205812218 2.6948486186051880 7.6560170616899800 0.45330466 -0.08608656 0.05721557  0.00000000
H 4.3484438738238162 2.6409294918470892 7.7023693751963400 -0.36543765 -0.00389004 0.04882776  0.00000000
H 2.5475568641580526 2.0052864514876416 7.6255308503331800 0.14137424 -0.25286136 -0.00235438  0.00000000
H 2.8474351575382096 1.3269620265572628 7.6311479170201600 -0.14525226 0.37727859 0.00662684  0.00000000
H 4.4468265618977784 1.3595308075851708 7.6043611772271400 -0.28252960 -0.34972538 -0.05873248  0.00000000
H 3.7784991014524980 1.6550289525573048 6.1691217931403800 -0.17931830 0.31925271 -0.04880069  0.00000000
H 3.9971008575779082 .7669394342071752 7.5564610271016600 0.17371515 0.31730693 -0.05639024  0.00000000
H 4.0035815685475020 1.0414639874426952 10.4766692068596200 0.17931999 -0.31927298 0.04880620  0.00000000
H 2.7987022379331622 1.8601166014636140 10.3998246895117000 -0.29152939 -0.00374840 -0.00224968  0.00000000
H 5.1727767231250678 1.7814865437540612 10.4054489693747800 0.40118074 0.06266613 0.00672368  0.00000000
H 2.8440500896076394 .4872904657884792 10.3786603430587800 -0.16256052 -0.42053451 -0.05876395  0.00000000
H 4.1137791376189840 2.4982993067336712 10.3307600819613600 0.18894855 0.31020519 -0.05628534  0.00000000
H 4.1756875494187782 .0016443213948120 8.9897739383100200 -0.45336571 0.08606837 -0.05722078  0.00000000
H 3.4336367961761838 .0555634481529108 8.9434216248036600 0.36547640 0.00386696 -0.04880680  0.00000000
H 5.2345238058419474 .6912064885123584 9.0202601496668200 -0.14137243 0.25282984 0.00234601  0.00000000
H 4.9346455124617904 1.3695309134427372 9.0146430829798400 0.14526402 -0.37729360 -0.00662054  0.00000000
H 4.4206158737752684 .4252962055528212 10.4303157836338600 -0.30118972 0.35022700 0.05727206  0.00000000
H 3.3352541081022216 1.3369621324148292 9.0414298227728600 0.28255790 0.34978418 0.05873631  0.00000000
H 3.3614647962247316 2.2711967344471788 6.2154752163661400 0.30116493 -0.35022407 -0.05727390  0.00000000
H 3.3352541081022216 1.3369621324148292 3.4928328227728600 0.28252681 0.34975707 0.05874375  0.00000000
H 4.9833784320668378 .8363763385363860 .6973693104883000 0.29150895 0.00374185 0.00226076  0.00000000
H 2.6093039468749322 .9150063962459388 .6917450306252200 -0.40116252 -0.06268101 -0.00672171  0.00000000
H 4.9380305803923606 2.2092024742115208 .7185336569412200 0.16257049 0.42052509 0.05877470  0.00000000
H 3.6683015323810160 .1981936332663288 .7664339180386400 -0.18893207 -0.31023284 0.05630102  0.00000000
H 3.6063931205812218 2.6948486186051880 2.1074200616899800 0.45332485 -0.08608691 0.05719179  0.00000000
H 4.3484438738238162 2.6409294918470892 2.1537723751963400 -0.36545011 -0.00391959 0.04879473  0.00000000
H 2.5475568641580526 2.0052864514876416 2.0769338503331800 0.14137699 -0.25284988 -0.00234871  0.00000000
H 2.8474351575382096 1.3269620265572628 2.0825509170201600 -0.14526563 0.37728835 0.00662069  0.00000000
H 4.4468265618977784 1.3595308075851708 2.0557641772271400 -0.28254284 -0.34970744 -0.05874889  0.00000000
H 3.7849798124220918 1.9295535057928248 3.5407329728983400 -0.17372947 -0.31739307 0.05637506  0.00000000
H 3.9971008575779082 .7669394342071752 2.0078640271016600 0.17371520 0.31733153 -0.05638602  0.00000000
H 4.0035815685475020 1.0414639874426952 4.9280722068596200 0.17935878 -0.31928622 0.04882692  0.00000000
H 2.7987022379331622 1.8601166014636140 4.8512276895117000 -0.29154104 -0.00374577 -0.00224375  0.00000000
H 5.1727767231250678 1.7814865437540612 4.8568519693747800 0.40116686 0.06265663 0.00673176  0.00000000
H 2.8440500896076394 .4872904657884792 4.8300633430587800 -0.16256731 -0.42055268 -0.05876704  0.00000000
H 4.1137791376189840 2.4982993067336712 4.7821630819613600 0.18892900 0.31022253 -0.05628534  0.00000000
H 4.1756875494187782 .0016443213948120 3.4411769383100200 -0.45333365 0.08609669 -0.05719953  0.00000000
H 3.4336367961761838 .0555634481529108 3.3948246248036600 0.36542654 0.00388408 -0.04880490  0.00000000
H 5.2345238058419474 .6912064885123584 3.4716631496668200 -0.14134436 0.25283237 0.00236242  0.00000000
H 4.9346455124617904 1.3695309134427372 3.4660460829798400 0.14525338 -0.37724884 -0.00662499  0.00000000
H 4.4206158737752684 .4252962055528212 4.8817187836338600 -0.30116612 0.35022347 0.05730553  0.00000000
H 3.7784991014524980 1.6550289525573048 .6205247931403800 -0.17933007 0.31924066 -0.04883701  0.00000000
H 3.7849798124220918 1.9295535057928248 9.0893299728983400 -0.17376249 -0.31738934 0.05635645  0.00000000
H 2.2257569414524980 4.3515218925573048 .6205247931403800 -0.17933434 0.31925301 -0.04881627  0.00000000
H 3.4306362720668378 3.5328692785363860 6.2459663104883000 0.29151939 0.00376357 0.00223961  0.00000000
H 1.0565617868749322 3.6114993362459388 6.2403420306252200 -0.40114241 -0.06265355 -0.00670637  0.00000000
H 3.3852884203923606 4.9056954142115208 6.2671306569412200 0.16258092 0.42058335 0.05878551  0.00000000
H 2.1155593723810160 2.8946865732663288 6.3150309180386400 -0.18894934 -0.31027343 0.05628419  0.00000000
H 2.0536509605812218 5.3913415586051880 7.6560170616899800 0.45334569 -0.08607308 0.05721881  0.00000000
H 2.7957017138238162 5.3374224318470892 7.7023693751963400 -0.36545174 -0.00389336 0.04882313  0.00000000
H .9948147041580526 4.7017793914876416 7.6255308503331800 0.14135387 -0.25287921 -0.00235392  0.00000000
H 1.2946929975382096 4.0234549665572628 7.6311479170201600 -0.14529364 0.37729894 0.00664076  0.00000000
H 2.8940844018977784 4.0560237475851708 7.6043611772271400 -0.28254133 -0.34974781 -0.05875041  0.00000000
H 2.2257569414524980 4.3515218925573048 6.1691217931403800 -0.17932841 0.31921496 -0.04883068  0.00000000
H 2.4443586975779082 3.4634323742071752 7.5564610271016600 0.17377003 0.31736639 -0.05636695  0.00000000
H 2.4508394085475020 3.7379569274426952 10.4766692068596200 0.17930020 -0.31925189 0.04881012  0.00000000
H 1.2459600779331622 4.5566095414636140 10.3998246895117000 -0.29152775 -0.00374424 -0.00223408  0.00000000
H 3.6200345631250678 4.4779794837540612 10.4054489693747800 0.40115817 0.06266495 0.00672437  0.00000000
H 1.2913079296076394 3.1837834057884792 10.3786603430587800 -0.16255652 -0.42053454 -0.05878478  0.00000000
H 2.5610369776189840 5.1947922467336712 10.3307600819613600 0.18891794 0.31019834 -0.05629017  0.00000000
H 2.6229453894187782 2.6981372613948120 8.9897739383100200 -0.45336126 0.08608347 -0.05723151  0.00000000
H 1.8808946361761838 2.7520563881529108 8.9434216248036600 0.36548714 0.00389718 -0.04882481  0.00000000
H 3.6817816458419474 3.3876994285123584 9.0202601496668200 -0.14134888 0.25283250 0.00236341  0.00000000
H 3.3819033524617904 4.0660238534427372 9.0146430829798400 0.14527384 -0.37728689 -0.00662008  0.00000000
H 2.8678737137752684 3.1217891455528212 10.4303157836338600 -0.30119225 0.35023009 0.05728658  0.00000000
H 1.8087226362247316 4.9676896744471788 .6668782163661400 0.30114850 -0.35021409 -0.05729794  0.00000000
H 1.8087226362247316 4.9676896744471788 6.2154752163661400 0.30115309 -0.35020125 -0.05728507  0.00000000
H 1.7825119481022216 4.0334550724148292 3.4928328227728600 0.28253240 0.34974994 0.05874128  0.00000000
H 3.4306362720668378 3.5328692785363860 .6973693104883000 0.29151663 0.00374241 0.00224668  0.00000000
H 1.0565617868749322 3.6114993362459388 .6917450306252200 -0.40118366 -0.06267130 -0.00673522  0.00000000
H 3.3852884203923606 4.9056954142115208 .7185336569412200 0.16258149 0.42055525 0.05877208  0.00000000
H 2.1155593723810160 2.8946865732663288 .7664339180386400 -0.18892778 -0.31024084 0.05629621  0.00000000
H 2.0536509605812218 5.3913415586051880 2.1074200616899800 0.45335307 -0.08610819 0.05720411  0.00000000
H 2.7957017138238162 5.3374224318470892 2.1537723751963400 -0.36546836 -0.00389593 0.04878880  0.00000000
H .9948147041580526 4.7017793914876416 2.0769338503331800 0.14135563 -0.25282598 -0.00235303  0.00000000
H 1.2946929975382096 4.0234549665572628 2.0825509170201600 -0.14524510 0.37724657 0.00661991  0.00000000
H 2.8940844018977784 4.0560237475851708 2.0557641772271400 -0.28251911 -0.34973693 -0.05873238  0.00000000
H 2.2322376524220918 4.6260464457928248 3.5407329728983400 -0.17371175 -0.31732848 0.05638012  0.00000000
H 2.4443586975779082 3.4634323742071752 2.0078640271016600 0.17371353 0.31732944 -0.05637565  0.00000000
H 2.4508394085475020 3.7379569274426952 4.9280722068596200 0.17935766 -0.31928183 0.04882076  0.00000000
H 1.2459600779331622 4.5566095414636140 4.8512276895117000 -0.29156231 -0.00377001 -0.00224407  0.00000000
H 3.6200345631250678 4.4779794837540612 4.8568519693747800 0.40116851 0.06266834 0.00671227  0.00000000
H 1.2913079296076394 3.1837834057884792 4.8300633430587800 -0.16257365 -0.42054501 -0.05877424  0.00000000
H 2.5610369776189840 5.1947922467336712 4.7821630819613600 0.18892792 0.31021291 -0.05628673  0.00000000
H 2.6229453894187782 2.6981372613948120 3.4411769383100200 -0.45333162 0.08611092 -0.05719486  0.00000000
H 1.8808946361761838 2.7520563881529108 3.3948246248036600 0.36546420 0.00390843 -0.04880162  0.00000000
H 3.6817816458419474 3.3876994285123584 3.4716631496668200 -0.14137719 0.25285080 0.00236728  0.00000000
H 3.3819033524617904 4.0660238534427372 3.4660460829798400 0.14523691 -0.37726023 -0.00660948  0.00000000
H 2.8678737137752684 3.1217891455528212 4.8817187836338600 -0.30116605 0.35023295 0.05729500  0.00000000
H 3.3614647962247316 2.2711967344471788 .6668782163661400 0.30115165 -0.35022062 -0.05730145  0.00000000
H -.8793699575779082 4.6260464457928248 9.0893299728983400 -0.17374527 -0.31740134 0.05637804  0.00000000
H -1.3290956618977784 4.0334550724148292 9.0414298227728600 0.28256027 0.34972068 0.05874457  0.00000000
H .6668914914524980 1.6550289525573048 6.1691217931403800 -0.17934885 0.31926580 -0.04882423  0.00000000
H 1.8717708220668378 .8363763385363860 6.2459663104883000 0.29152075 0.00375966 0.00223668  0.00000000
H -.5023036631250678 .9150063962459388 6.2403420306252200 -0.40116200 -0.06266826 -0.00674003  0.00000000
H 1.8264229703923606 2.2092024742115208 6.2671306569412200 0.16260813 0.42057976 0.05877806  0.00000000
H .5566939223810160 .1981936332663288 6.3150309180386400 -0.18894298 -0.31024854 0.05628715  0.00000000
H .4947855105812218 2.6948486186051880 7.6560170616899800 0.45332506 -0.08608459 0.05720521  0.00000000
H 1.2368362638238162 2.6409294918470892 7.7023693751963400 -0.36544024 -0.00389326 0.04880972  0.00000000
H -.5640507458419474 2.0052864514876416 7.6255308503331800 0.14138064 -0.25287713 -0.00236370  0.00000000
H -.2641724524617904 1.3269620265572628 7.6311479170201600 -0.14523495 0.37730685 0.00663093  0.00000000
H .2498571862247316 2.2711967344471788 6.2154752163661400 0.30116627 -0.35025257 -0.05730600  0.00000000
H 1.3352189518977784 1.3595308075851708 7.6043611772271400 -0.28253992 -0.34975296 -0.05873762  0.00000000
H 1.3090082637752684 .4252962055528212 10.4303157836338600 -0.30118189 0.35025484 0.05731827  0.00000000
H .8919739585475020 1.0414639874426952 10.4766692068596200 0.17933721 -0.31928563 0.04884043  0.00000000
H -.3129053720668378 1.8601166014636140 10.3998246895117000 -0.29149521 -0.00374444 -0.00224290  0.00000000
H 2.0611691131250678 1.7814865437540612 10.4054489693747800 0.40118150 0.06267883 0.00671965  0.00000000
H -.2675575203923606 .4872904657884792 10.3786603430587800 -0.16257662 -0.42054436 -0.05876803  0.00000000
H 1.0021715276189840 2.4982993067336712 10.3307600819613600 0.18892899 0.31018612 -0.05629938  0.00000000
H 1.0640799394187782 .0016443213948120 8.9897739383100200 -0.45329622 0.08609924 -0.05720120  0.00000000
H .3220291861761838 .0555634481529108 8.9434216248036600 0.36543048 0.00390909 -0.04880454  0.00000000
H 2.1229161958419474 .6912064885123584 9.0202601496668200 -0.14136309 0.25281455 0.00235110  0.00000000
H .8854932475779082 .7669394342071752 7.5564610271016600 0.17372093 0.31734898 -0.05636165  0.00000000
H 1.8230379024617904 1.3695309134427372 9.0146430829798400 0.14525134 -0.37725776 -0.00662570  0.00000000
H .6733722024220918 1.9295535057928248 3.5407329728983400 -0.17373378 -0.31736030 0.05638205  0.00000000
H 1.8230379024617904 1.3695309134427372 3.4660460829798400 0.14524802 -0.37727875 -0.00663551  0.00000000
H .6668914914524980 1.6550289525573048 .6205247931403800 -0.17930371 0.31922980 -0.04880257  0.00000000
H 1.8717708220668378 .8363763385363860 .6973693104883000 0.29150131 0.00372791 0.00224874  0.00000000
H -.5023036631250678 .9150063962459388 .6917450306252200 -0.40117212 -0.06267659 -0.00671344  0.00000000
H 1.8264229703923606 2.2092024742115208 .7185336569412200 0.16257621 0.42054444 0.05879213  0.00000000
H .5566939223810160 .1981936332663288 .7664339180386400 -0.18893030 -0.31020554 0.05628464  0.00000000
H .4947855105812218 2.6948486186051880 2.1074200616899800 0.45332811 -0.08607093 0.05721395  0.00000000
H 1.2368362638238162 2.6409294918470892 2.1537723751963400 -0.36543830 -0.00387278 0.04881922  0.00000000
H -.5640507458419474 2.0052864514876416 2.0769338503331800 0.14138729 -0.25281611 -0.00236276  0.00000000
H -.2641724524617904 1.3269620265572628 2.0825509170201600 -0.14523840 0.37727482 0.00663143  0.00000000
H .2236464981022216 1.3369621324148292 3.4928328227728600 0.28254488 0.34974790 0.05874633  0.00000000
H 1.3352189518977784 1.3595308075851708 2.0557641772271400 -0.28255462 -0.34975574 -0.05875868  0.00000000
H 1.3090082637752684 .4252962055528212 4.8817187836338600 -0.30116101 0.35020389 0.05729440  0.00000000
H .8919739585475020 1.0414639874426952 4.9280722068596200 0.17932426 -0.31923963 0.04881360  0.00000000
H -.3129053720668378 1.8601166014636140 4.8512276895117000 -0.29147583 -0.00374804 -0.00223099  0.00000000
H 2.0611691131250678 1.7814865437540612 4.8568519693747800 0.40118694 0.06266936 0.00671173  0.00000000
H -.2675575203923606 .4872904657884792 4.8300633430587800 -0.16258270 -0.42053982 -0.05877405  0.00000000
H 1.0021715276189840 2.4982993067336712 4.7821630819613600 0.18890633 0.31022390 -0.05629383  0.00000000
H 1.0640799394187782 .0016443213948120 3.4411769383100200 -0.45334596 0.08608851 -0.05720632  0.00000000
H .3220291861761838 .0555634481529108 3.3948246248036600 0.36547676 0.00388389 -0.04881914  0.00000000
H 2.1229161958419474 .6912064885123584 3.4716631496668200 -0.14137926 0.25284545 0.00235826  0.00000000
H .8854932475779082 .7669394342071752 2.0078640271016600 0.17375738 0.31739762 -0.05639525  0.00000000
H .2236464981022216 1.3369621324148292 9.0414298227728600 0.28256523 0.34975464 0.05874733  0.00000000
H .6733722024220918 1.9295535057928248 9.0893299728983400 -0.17372933 -0.31733938 0.05636461  0.00000000
H -1.3028849737752684 4.9676896744471788 .6668782163661400 0.30117283 -0.35021040 -0.05729450  0.00000000
H .3190286620668378 3.5328692785363860 6.2459663104883000 0.29150629 0.00376956 0.00227031  0.00000000
H -2.0550458231250678 3.6114993362459388 6.2403420306252200 -0.40117486 -0.06267603 -0.00672375  0.00000000
H .2736808103923606 4.9056954142115208 6.2671306569412200 0.16259441 0.42058190 0.05877525  0.00000000
H -.9960482376189840 2.8946865732663288 6.3150309180386400 -0.18892623 -0.31021099 0.05628343  0.00000000
H -1.0579566494187782 5.3913415586051880 7.6560170616899800 0.45333921 -0.08610442 0.05720634  0.00000000
H -.3159058961761838 5.3374224318470892 7.7023693751963400 -0.36543693 -0.00388769 0.04882619  0.00000000
H -2.1167929058419474 4.7017793914876416 7.6255308503331800 0.14136481 -0.25285400 -0.00234861  0.00000000
H -1.8169146124617904 4.0234549665572628 7.6311479170201600 -0.14525659 0.37728149 0.00664129  0.00000000
H -.2175232081022216 4.0560237475851708 7.6043611772271400 -0.28253941 -0.34973536 -0.05873112  0.00000000
H -.8858506685475020 4.3515218925573048 6.1691217931403800 -0.17931646 0.31923353 -0.04882170  0.00000000
H -.6672489124220918 3.4634323742071752 7.5564610271016600 0.17371552 0.31734857 -0.05636507  0.00000000
H -.6607682014524980 3.7379569274426952 10.4766692068596200 0.17932567 -0.31926246 0.04880909  0.00000000
H -1.8656475320668378 4.5566095414636140 10.3998246895117000 -0.29150124 -0.00372900 -0.00222951  0.00000000
H .5084269531250678 4.4779794837540612 10.4054489693747800 0.40118472 0.06266275 0.00672638  0.00000000
H -1.8202996803923606 3.1837834057884792 10.3786603430587800 -0.16257755 -0.42055517 -0.05876419  0.00000000
H -.5505706323810160 5.1947922467336712 10.3307600819613600 0.18894704 0.31023941 -0.05628860  0.00000000
H -.4886622205812218 2.6981372613948120 8.9897739383100200 -0.45335099 0.08609780 -0.05721056  0.00000000
H -1.2307129738238162 2.7520563881529108 8.9434216248036600 0.36549899 0.00388417 -0.04879917  0.00000000
H .5701740358419474 3.3876994285123584 9.0202601496668200 -0.14132847 0.25284243 0.00234952  0.00000000
H .2702957424617904 4.0660238534427372 9.0146430829798400 0.14527500 -0.37730526 -0.00662819  0.00000000
H -.2437338962247316 3.1217891455528212 10.4303157836338600 -0.30116939 0.35025437 0.05729108  0.00000000
H -1.3028849737752684 4.9676896744471788 6.2154752163661400 0.30116315 -0.35022212 -0.05729273  0.00000000
H -.8793699575779082 4.6260464457928248 3.5407329728983400 -0.17372656 -0.31737731 0.05636833  0.00000000
H -1.3290956618977784 4.0334550724148292 3.4928328227728600 0.28255706 0.34975531 0.05873933  0.00000000
H -.8858506685475020 4.3515218925573048 .6205247931403800 -0.17931754 0.31925498 -0.04881315  0.00000000
H .3190286620668378 3.5328692785363860 .6973693104883000 0.29148047 0.00375814 0.00222966  0.00000000
H -2.0550458231250678 3.6114993362459388 .6917450306252200 -0.40115752 -0.06267919 -0.00671761  0.00000000
H .2736808103923606 4.9056954142115208 .7185336569412200 0.16257751 0.42054493 0.05877591  0.00000000
H -.9960482376189840 2.8946865732663288 .7664339180386400 -0.18892588 -0.31019026 0.05629102  0.00000000
H -1.0579566494187782 5.3913415586051880 2.1074200616899800 0.45332449 -0.08608677 0.05721571  0.00000000
H -.3159058961761838 5.3374224318470892 2.1537723751963400 -0.36542071 -0.00387673 0.04882391  0.00000000
H -2.1167929058419474 4.7017793914876416 2.0769338503331800 0.14137700 -0.25280701 -0.00236641  0.00000000
H -1.8169146124617904 4.0234549665572628 2.0825509170201600 -0.14522115 0.37725156 0.00661133  0.00000000
H -.2175232081022216 4.0560237475851708 2.0557641772271400 -0.28254180 -0.34973506 -0.05874605  0.00000000
H -.6672489124220918 3.4634323742071752 2.0078640271016600 0.17373504 0.31736195 -0.05638388  0.00000000
H -.2437338962247316 3.1217891455528212 4.8817187836338600 -0.30115122 0.35020290 0.05729289  0.00000000
H -.6607682014524980 3.7379569274426952 4.9280722068596200 0.17931026 -0.31923989 0.04881381  0.00000000
H -1.8656475320668378 4.5566095414636140 4.8512276895117000 -0.29151324 -0.00374813 -0.00225105  0.00000000
H .5084269531250678 4.4779794837540612 4.8568519693747800 0.40119223 0.06267019 0.00671293  0.00000000
H -1.8202996803923606 3.1837834057884792 4.8300633430587800 -0.16258963 -0.42052745 -0.05879822  0.00000000
H -.5505706323810160 5.1947922467336712 4.7821630819613600 0.18891779 0.31018809 -0.05628202  0.00000000
H -.4886622205812218 2.6981372613948120 3.4411769383100200 -0.45332860 0.08610685 -0.05722666  0.00000000
H -1.2307129738238162 2.7520563881529108 3.3948246248036600 0.36545660 0.00389407 -0.04882350  0.00000000
H .5701740358419474 3.3876994285123584 3.4716631496668200 -0.14139228 0.25286134 0.00236050  0.00000000
H .2702957424617904 4.0660238534427372 3.4660460829798400 0.14524458 -0.37727194 -0.00662580  0.00000000
H 1.7825119481022216 4.0334550724148292 9.0414298227728600 0.28254958 0.34975001 0.05876618  0.00000000
H 2.2322376524220918 4.6260464457928248 9.0893299728983400 -0.17377139 -0.31737485 0.05638859  0.00000000
192
Lattice="6.22321522 0.00000000 0.00000000 -3.10548432 5.39298588 0.00000000 0.00000000 0.00000000 11.09719400 " Properties=species:S:1:pos:R:3:forces:R:3:energies:R:1 energy=-431.08665028 pbc="T T T"
H .2527632003437852 2.2678174894947708 .6663255761049400 0.17180818 -0.17917758 -0.05154581  0.00000000
H 4.9861915221364000 .8364126333313584 6.2459878390446600 0.10062201 -0.00613698 0.00334902  0.00000000
H 2.6054335406435570 .9144017346690732 6.2402770010683800 -0.22847028 -0.03470059 -0.00819171  0.00000000
H 4.9395992992918424 2.2132601028577740 6.2676977235546200 0.09113159 0.22351373 0.05309717  0.00000000
H 3.6664783096932614 .1952000407341996 6.3155740147130000 -0.08664268 -0.10308237 0.07993897  0.00000000
H 3.6107668177883040 2.6940180448498092 7.6565690361195400 0.24075080 -0.05943297 0.05149705  0.00000000
H 4.3449179441585224 2.6408919566653644 7.7028404510816400 -0.13086286 -0.00685614 0.07282531  0.00000000
H 2.5489209299177342 2.0028467186053884 7.6255081010854800 0.05517161 -0.08342354 -0.00341265  0.00000000
H 2.8460336841920614 1.3306022380964040 7.6312118368576000 -0.08364243 0.21456826 0.00817462  0.00000000
H 4.4441006029310020 1.3561564702499136 7.6037945545015000 -0.14784967 -0.19007126 -0.05307331  0.00000000
H 3.7767689044799836 1.6581092643023844 6.1686509391989600 -0.05950937 0.11716089 -0.07283872  0.00000000
H 3.9987769783791638 .7700009783613924 7.5559169316798400 0.04572193 0.12606873 -0.07997504  0.00000000
H 4.0053117342202416 1.0383835139080392 10.4771401717729800 0.05950583 -0.11714952 0.07283600  0.00000000
H 2.7958893658598314 1.8600804684582180 10.3998030499834000 -0.10064681 0.00612079 -0.00334293  0.00000000
H 5.1766475027493562 1.7820912053309268 10.4055137769877400 0.22842532 0.03470878 0.00821330  0.00000000
H 2.8424816197592322 .4832329450019436 10.3780932764453800 -0.09112964 -0.22349968 -0.05309697  0.00000000
H 4.1156021729979530 2.5012923599672124 10.3302169852870000 0.08667562 0.10312482 -0.07994447  0.00000000
H 4.1713132608225514 .0024747333606144 8.9892218529085200 -0.24070182 0.05944185 -0.05146416  0.00000000
H 3.4371630367573070 .0556007676152004 8.9429507708622400 0.13081255 0.00688363 -0.07284225  0.00000000
H 5.2331598019470206 .6936458978154588 9.0202827879425800 -0.05516585 0.08343819 0.00341731  0.00000000
H 4.9360471101497772 1.3658905940438784 9.0145792741143400 0.08365499 -0.21455561 -0.00818239  0.00000000
H 4.4177098284789058 .4286753965753704 10.4308683129231200 -0.17179837 0.17916849 0.05155157  0.00000000
H 3.3379803477872448 1.3403370629785332 9.0419964454985000 0.14780632 0.18996785 0.05306221  0.00000000
H 3.3643705615376422 2.2678175973544884 6.2149226870768800 0.17182092 -0.17917978 -0.05154988  0.00000000
H 3.3379800674363954 1.3403367933292392 3.4933995564704400 0.14784010 0.19000571 0.05305741  0.00000000
H 4.9861910552115598 .8364124715417820 .6973910609885400 0.10063659 -0.00612205 0.00334629  0.00000000
H 2.6054332915924824 .9144016268093556 .6916802230122600 -0.22848114 -0.03468454 -0.00821267  0.00000000
H 4.9395991435277632 2.2132599410681976 .7191008345265600 0.09112127 0.22348634 0.05310210  0.00000000
H 3.6664786522762630 .1952003103834936 .7669771256849400 -0.08670117 -0.10313525 0.07992425  0.00000000
H 3.6107670044847606 2.6940180448498092 2.1079718141756600 0.24074187 -0.05943127 0.05149917  0.00000000
H 4.3449178505041296 2.6408916870160704 2.1542431181658200 -0.13083775 -0.00684195 0.07285290  0.00000000
H 2.5489209300402000 2.0028468264651060 2.0769112120574200 0.05514402 -0.08342826 -0.00342267  0.00000000
H 2.8460334976180706 1.3306023459561216 2.0826147258856600 -0.08363183 0.21455012 0.00818547  0.00000000
H 4.4441004475343202 1.3561566320394900 2.0551973325576200 -0.14783570 -0.19006183 -0.05305863  0.00000000
H 3.7833035351219622 1.9264911526907256 3.5412768463762800 -0.04571642 -0.12601638 0.07998123  0.00000000
H 3.9987769475692522 .7700012480106864 2.0073200426517800 0.04570331 0.12606771 -0.07997701  0.00000000
H 4.0053121385455322 1.0383833521184628 4.9285432827449200 0.05946689 -0.11712787 0.07281526  0.00000000
H 2.7958892413955270 1.8600804684582180 4.8512060499834000 -0.10062496 0.00611879 -0.00338163  0.00000000
H 5.1766473781625860 1.7820910974712092 4.8569168879596800 0.22847388 0.03470613 0.00821633  0.00000000
H 2.8424815262273052 .4832327832123672 4.8294962764453800 -0.09113414 -0.22351507 -0.05310268  0.00000000
H 4.1156019553691190 2.5012925217567888 4.7816199852870000 0.08669482 0.10313944 -0.07993080  0.00000000
H 4.1713135101185576 .0024750569397672 3.4406250748524000 -0.24073787 0.05942965 -0.05150184  0.00000000
H 3.4371625701998642 .0556009294047768 3.3943537708622400 0.13087100 0.00687536 -0.07285320  0.00000000
H 5.2331600198207862 .6936459517453176 3.4716858989145200 -0.05520714 0.08345948 0.00340602  0.00000000
H 4.9360469861753360 1.3658910254827488 3.4659821631424000 0.08364869 -0.21458431 -0.00818003  0.00000000
H 4.4177100462302056 .4286753426455116 4.8822716458389400 -0.17177751 0.17912950 0.05152407  0.00000000
H 3.7767687798932134 1.6581091564426668 .6200536062831400 -0.05948962 0.11715619 -0.07278794  0.00000000
H 3.7833032239612012 1.9264911526907256 9.0898737354043400 -0.04568532 -0.12600679 0.08000226  0.00000000
H 2.2240266200156792 4.3546022043023844 .6200537172550800 -0.05949265 0.11715010 -0.07282873  0.00000000
H 3.4334490509756390 3.5329055733313584 6.2459878390446600 0.10064020 -0.00613465 0.00336084  0.00000000
H 1.0526913497111796 3.6108948364586496 6.2402773339842000 -0.22850923 -0.03473534 -0.00822664  0.00000000
H 3.3868571086043966 4.9097534203667856 6.2676978345265600 0.09112109 0.22347108 0.05308214  0.00000000
H 2.1137363362672522 2.8916928728744820 6.3155740147130000 -0.08666601 -0.10302930 0.07994675  0.00000000
H 2.0580250313036830 5.3905110927095268 7.6565690361195400 0.24071217 -0.05942312 0.05147388  0.00000000
H 2.7921756596942180 5.3373848966653644 7.7028404510816400 -0.13085012 -0.00685786 0.07281365  0.00000000
H .9961785519215028 4.6993394968158120 7.6255081010854800 0.05519937 -0.08339526 -0.00340974  0.00000000
H 1.2932910888119276 4.0270953938158392 7.6312119478295400 -0.08360303 0.21453946 0.00816873  0.00000000
H 2.8913583182217660 4.0526491945304784 7.6037943325576200 -0.14782767 -0.19001324 -0.05305210  0.00000000
H 2.2240266507031250 4.3546018267933728 6.1686506062831400 -0.05951079 0.11719094 -0.07281760  0.00000000
H 2.4460353480260194 3.4664945115898392 7.5559171536237200 0.04569028 0.12602604 -0.07997855  0.00000000
H 2.4525693877687166 3.7348766696274744 10.4771401717729800 0.05952145 -0.11717123 0.07281590  0.00000000
H 1.2431472680919836 4.5565734084582180 10.3998031609553400 -0.10065793 0.00613583 -0.00337232  0.00000000
H 3.6239050938207474 4.4785841453309268 10.4055138879596800 0.22847201 0.03473944 0.00820972  0.00000000
H 1.2897394597592322 3.1797258850019436 10.3780930545015000 -0.09113465 -0.22350419 -0.05309316  0.00000000
H 2.5628597328920352 5.1977852460373536 10.3302169852870000 0.08669016 0.10313743 -0.07993607  0.00000000
H 2.6185711321223262 2.6989678351501908 8.9892217419365800 -0.24067182 0.05943100 -0.05147765  0.00000000
H 1.8844210326438520 2.7520939772644944 8.9429505489183600 0.13079512 0.00686385 -0.07282387  0.00000000
H 3.6804178598207862 3.3901388917453176 9.0202828989145200 -0.05518827 0.08345284 0.00340417  0.00000000
H 3.3833050435592384 4.0623835879737372 9.0145792741143400 0.08365080 -0.21456984 -0.00819846  0.00000000
H 2.8649676374240626 3.1251683905052292 10.4308684238950600 -0.17181329 0.17918440 0.05153758  0.00000000
H 1.8116282771958036 4.9643106452142060 .6663253541610600 0.17183036 -0.17915409 -0.05153475  0.00000000
H 1.8116282773182694 4.9643107530739236 6.2149225761049400 0.17184386 -0.17919594 -0.05154459  0.00000000
H 1.7852379384912386 4.0368296793993804 3.4933995564704400 0.14784776 0.19003220 0.05306217  0.00000000
H 3.4334489574437120 3.5329054115417820 .6973909500166000 0.10061570 -0.00611556 0.00335386  0.00000000
H 1.0526909450184916 3.6108946746690732 .6916800010683800 -0.22844037 -0.03470577 -0.00819910  0.00000000
H 3.3868570771821560 4.9097531507174916 .7191007235546200 0.09113362 0.22348308 0.05309657  0.00000000
H 2.1137365233311062 2.8916931964536348 .7669771256849400 -0.08670453 -0.10312685 0.07992472  0.00000000
H 2.0580250931684378 5.3905107691303740 2.1079719251476000 0.24068852 -0.05939990 0.05148882  0.00000000
H 2.7921755040526046 5.3373848427355056 2.1542431181658200 -0.13080870 -0.00687562 0.07286047  0.00000000
H .9961785525338318 4.6993400361144000 2.0769111010854800 0.05521167 -0.08348076 -0.00341707  0.00000000
H 1.2932915860568162 4.0270948545172512 2.0826147258856600 -0.08367095 0.21463011 0.00818187  0.00000000
H 2.8913585050406884 4.0526493023901960 2.0551975545015000 -0.14787550 -0.19002870 -0.05308022  0.00000000
H 2.2305615936080568 4.6229846859191724 3.5412769573482200 -0.04573040 -0.12607577 0.07997957  0.00000000
H 2.4460348186240954 3.4664941340808276 2.0073201536237200 0.04572345 0.12607020 -0.07998067  0.00000000
H 2.4525699474906890 3.7348763460483216 4.9285432827449200 0.05948384 -0.11714273 0.07281167  0.00000000
H 1.2431468944541388 4.5565731927387828 4.8512060499834000 -0.10062221 0.00614969 -0.00336966  0.00000000
H 3.6239052182850518 4.4785841453309268 4.8569166660158000 0.22843001 0.03470435 0.00822172  0.00000000
H 1.2897393351724620 3.1797257771422260 4.8294961654734400 -0.09111529 -0.22348815 -0.05308931  0.00000000
H 2.5628597641918100 5.1977854078269300 4.7816199852870000 0.08670407 0.10314013 -0.07992808  0.00000000