2
Lattice="8.00000000 0.00000000 0.00000000 0.00000000 8.00000000 0.00000000 0.00000000 0.00000000 8.00000000 " Properties=species:S:1:pos:R:3:forces:R:3:energies:R:1 energy=-6.09449678 pbc="T T T"
H 4.0000000000000000 4.0000000000000000 4.0000000000000000 0.00000000 0.00000000 4.16932499  0.00000000
H 4.0000000000000000 4.0000000000000000 5.0000000000000000 0.00000000 0.00000000 -4.16932499  0.00000000
2
Lattice="8.00000000 0.00000000 0.00000000 0.00000000 8.00000000 0.00000000 0.00000000 0.00000000 8.00000000 " Properties=species:S:1:pos:R:3:forces:R:3:energies:R:1 energy=-6.40276476 pbc="T T T"
H 4.0000000000000000 4.0000000000000000 4.0402278400000000 -0.00000000 0.00000000 3.42191657  0.00000000
H 4.0000000000000000 4.0000000000000000 4.9597721600000000 -0.00000000 0.00000000 -3.42191657  0.00000000
2
Lattice="8.00000000 0.00000000 0.00000000 0.00000000 8.00000000 0.00000000 0.00000000 0.00000000 8.00000000 " Properties=species:S:1:pos:R:3:forces:R:3:energies:R:1 energy=-6.72472192 pbc="T T T"
H 4.0000000000000000 4.0000000000000000 4.1134721600000000 -0.00000000 -0.00000000 0.56282556  0.00000000
H 4.0000000000000000 4.0000000000000000 4.8865278400000000 0.00000000 0.00000000 -0.56282556  0.00000000
2
Lattice="8.00000000 0.00000000 0.00000000 0.00000000 8.00000000 0.00000000 0.00000000 0.00000000 8.00000000 " Properties=species:S:1:pos:R:3:forces:R:3:energies:R:1 energy=-6.29626680 pbc="T T T"
H 4.0000000000000000 4.0000000000000000 4.1921469600000000 0.00000000 0.00000000 -7.37220927  0.00000000
H 4.0000000000000000 4.0000000000000000 4.8078530400000000 0.00000000 -0.00000000 7.37220927  0.00000000
2
Lattice="8.00000000 0.00000000 0.00000000 0.00000000 8.00000000 0.00000000 0.00000000 0.00000000 8.00000000 " Properties=species:S:1:pos:R:3:forces:R:3:energies:R:1 energy=-6.17529336 pbc="T T T"
H 4.0000000000000000 4.0000000000000000 4.1996907200000000 0.00000000 0.00000000 -8.68748313  0.00000000
H 4.0000000000000000 4.0000000000000000 4.8003092800000000 -0.00000000 -0.00000000 8.68748313  0.00000000
2
Lattice="8.00000000 0.00000000 0.00000000 0.00000000 8.00000000 0.00000000 0.00000000 0.00000000 8.00000000 " Properties=species:S:1:pos:R:3:forces:R:3:energies:R:1 energy=-6.72997032 pbc="T T T"
H 4.0000000000000000 4.0000000000000000 4.1234130400000000 -0.00000000 -0.00000000 -0.05685799  0.00000000
H 4.0000000000000000 4.0000000000000000 4.8765869600000000 0.00000000 0.00000000 0.05685799  0.00000000
2
Lattice="8.00000000 0.00000000 0.00000000 0.00000000 8.00000000 0.00000000 0.00000000 0.00000000 8.00000000 " Properties=species:S:1:pos:R:3:forces:R:3:energies:R:1 energy=-6.44526874 pbc="T T T"
H 4.0000000000000000 4.0000000000000000 4.0465868000000000 -0.00000000 -0.00000000 3.26083939  0.00000000
H 4.0000000000000000 4.0000000000000000 4.9534132000000000 0.00000000 0.00000000 -3.26083939  0.00000000
2
Lattice="8.00000000 0.00000000 0.00000000 0.00000000 8.00000000 0.00000000 0.00000000 0.00000000 8.00000000 " Properties=species:S:1:pos:R:3:forces:R:3:energies:R:1 energy=-6.10466431 pbc="T T T"
H 4.0000000000000000 4.0000000000000000 4.0012228800000000 -0.00000000 -0.00000000 4.15239171  0.00000000
H 4.0000000000000000 4.0000000000000000 4.9987771200000000 -0.00000000 0.00000000 -4.15239171  0.00000000
2
Lattice="8.00000000 0.00000000 0.00000000 0.00000000 8.00000000 0.00000000 0.00000000 0.00000000 8.00000000 " Properties=species:S:1:pos:R:3:forces:R:3:energies:R:1 energy=-6.06028963 pbc="T T T"
H 4.0000000000000000 4.0000000000000000 3.9959233600000000 0.00000000 -0.00000000 4.21958957  0.00000000
H 4.0000000000000000 4.0000000000000000 5.0040766400000000 -0.00000000 0.00000000 -4.21958957  0.00000000
2
Lattice="8.00000000 0.00000000 0.00000000 0.00000000 8.00000000 0.00000000 0.00000000 0.00000000 8.00000000 " Properties=species:S:1:pos:R:3:forces:R:3:energies:R:1 energy=-6.34007267 pbc="T T T"
H 4.0000000000000000 4.0000000000000000 4.0313367200000000 0.00000000 0.00000000 3.62519151  0.00000000
H 4.0000000000000000 4.0000000000000000 4.9686632800000000 -0.00000000 -0.00000000 -3.62519151  0.00000000
2
Lattice="8.00000000 0.00000000 0.00000000 0.00000000 8.00000000 0.00000000 0.00000000 0.00000000 8.00000000 " Properties=species:S:1:pos:R:3:forces:R:3:energies:R:1 energy=-6.70374167 pbc="T T T"
H 4.0000000000000000 4.0000000000000000 4.1017278400000000 0.00000000 -0.00000000 1.20237991  0.00000000
H 4.0000000000000000 4.0000000000000000 4.8982721600000000 -0.00000000 -0.00000000 -1.20237991  0.00000000
2
Lattice="8.00000000 0.00000000 0.00000000 0.00000000 8.00000000 0.00000000 0.00000000 0.00000000 8.00000000 " Properties=species:S:1:pos:R:3:forces:R:3:energies:R:1 energy=-6.40925185 pbc="T T T"
H 4.0000000000000000 4.0000000000000000 4.1837202400000000 -0.00000000 -0.00000000 -6.06235946  0.00000000
H 4.0000000000000000 4.0000000000000000 4.8162797600000000 0.00000000 0.00000000 6.06235946  0.00000000
2
Lattice="8.00000000 0.00000000 0.00000000 0.00000000 8.00000000 0.00000000 0.00000000 0.00000000 8.00000000 " Properties=species:S:1:pos:R:3:forces:R:3:energies:R:1 energy=-6.03365228 pbc="T T T"
H 4.0000000000000000 4.0000000000000000 4.2072196800000000 -0.00000000 -0.00000000 -10.14997366  0.00000000
H 4.0000000000000000 4.0000000000000000 4.7927803200000000 0.00000000 0.00000000 10.14997366  0.00000000
2
Lattice="8.00000000 0.00000000 0.00000000 0.00000000 8.00000000 0.00000000 0.00000000 0.00000000 8.00000000 " Properties=species:S:1:pos:R:3:forces:R:3:energies:R:1 energy=-6.72300177 pbc="T T T"
H 4.0000000000000000 4.0000000000000000 4.1327868000000000 -0.00000000 -0.00000000 -0.70460804  0.00000000
H 4.0000000000000000 4.0000000000000000 4.8672132000000000 0.00000000 -0.00000000 0.70460804  0.00000000
2
Lattice="8.00000000 0.00000000 0.00000000 0.00000000 8.00000000 0.00000000 0.00000000 0.00000000 8.00000000 " Properties=species:S:1:pos:R:3:forces:R:3:energies:R:1 energy=-6.47702168 pbc="T T T"
H 4.0000000000000000 4.0000000000000000 4.0515555200000000 0.00000000 0.00000000 3.12642299  0.00000000
H 4.0000000000000000 4.0000000000000000 4.9484444800000000 -0.00000000 -0.00000000 -3.12642299  0.00000000
2
Lattice="8.00000000 0.00000000 0.00000000 0.00000000 8.00000000 0.00000000 0.00000000 0.00000000 8.00000000 " Properties=species:S:1:pos:R:3:forces:R:3:energies:R:1 energy=-6.09857643 pbc="T T T"
H 4.0000000000000000 4.0000000000000000 4.0004896000000000 0.00000000 0.00000000 4.16253972  0.00000000
H 4.0000000000000000 4.0000000000000000 4.9995104000000000 -0.00000000 -0.00000000 -4.16253972  0.00000000
2
Lattice="8.00000000 0.00000000 0.00000000 0.00000000 8.00000000 0.00000000 0.00000000 0.00000000 8.00000000 " Properties=species:S:1:pos:R:3:forces:R:3:energies:R:1 energy=-6.00628359 pbc="T T T"
H 4.0000000000000000 4.0000000000000000 3.9895860800000000 0.00000000 0.00000000 4.29798005  0.00000000
H 4.0000000000000000 4.0000000000000000 5.0104139200000000 -0.00000000 -0.00000000 -4.29798005  0.00000000
2
Lattice="8.00000000 0.00000000 0.00000000 0.00000000 8.00000000 0.00000000 0.00000000 0.00000000 8.00000000 " Properties=species:S:1:pos:R:3:forces:R:3:energies:R:1 energy=-6.25641200 pbc="T T T"
H 4.0000000000000000 4.0000000000000000 4.0201517600000000 0.00000000 0.00000000 3.84862801  0.00000000
H 4.0000000000000000 4.0000000000000000 4.9798482400000000 0.00000000 -0.00000000 -3.84862801  0.00000000
2
Lattice="8.00000000 0.00000000 0.00000000 0.00000000 8.00000000 0.00000000 0.00000000 0.00000000 8.00000000 " Properties=species:S:1:pos:R:3:forces:R:3:energies:R:1 energy=-6.66108759 pbc="T T T"
H 4.0000000000000000 4.0000000000000000 4.0878510400000000 0.00000000 0.00000000 1.85402453  0.00000000
H 4.0000000000000000 4.0000000000000000 4.9121489600000000 -0.00000000 -0.00000000 -1.85402453  0.00000000
2
Lattice="8.00000000 0.00000000 0.00000000 0.00000000 8.00000000 0.00000000 0.00000000 0.00000000 8.00000000 " Properties=species:S:1:pos:R:3:forces:R:3:energies:R:1 energy=-6.51918198 pbc="T T T"
H 4.0000000000000000 4.0000000000000000 4.1734389600000000 -0.00000000 -0.00000000 -4.66364994  0.00000000
H 4.0000000000000000 4.0000000000000000 4.8265610400000000 -0.00000000 0.00000000 4.66364993  0.00000000
2
Lattice="8.00000000 0.00000000 0.00000000 0.00000000 8.00000000 0.00000000 0.00000000 0.00000000 8.00000000 " Properties=species:S:1:pos:R:3:forces:R:3:energies:R:1 energy=-5.88550379 pbc="T T T"
H 4.0000000000000000 4.0000000000000000 4.2140295200000000 -0.00000000 -0.00000000 -11.62783094  0.00000000
H 4.0000000000000000 4.0000000000000000 4.7859704800000000 0.00000000 0.00000000 11.62783094  0.00000000
2
Lattice="8.00000000 0.00000000 0.00000000 0.00000000 8.00000000 0.00000000 0.00000000 0.00000000 8.00000000 " Properties=species:S:1:pos:R:3:forces:R:3:energies:R:1 energy=-6.70227713 pbc="T T T"
H 4.0000000000000000 4.0000000000000000 4.1424285600000000 0.00000000 -0.00000000 -1.46195618  0.00000000
H 4.0000000000000000 4.0000000000000000 4.8575714400000000 0.00000000 0.00000000 1.46195618  0.00000000
2
Lattice="8.00000000 0.00000000 0.00000000 0.00000000 8.00000000 0.00000000 0.00000000 0.00000000 8.00000000 " Properties=species:S:1:pos:R:3:forces:R:3:energies:R:1 energy=-6.50856581 pbc="T T T"
H 4.0000000000000000 4.0000000000000000 4.0567218400000000 0.00000000 0.00000000 2.97730465  0.00000000
H 4.0000000000000000 4.0000000000000000 4.9432781600000000 -0.00000000 -0.00000000 -2.97730465  0.00000000
2
Lattice="8.00000000 0.00000000 0.00000000 0.00000000 8.00000000 0.00000000 0.00000000 0.00000000 8.00000000 " Properties=species:S:1:pos:R:3:forces:R:3:energies:R:1 energy=-5.92434029 pbc="T T T"
H 4.0000000000000000 4.0000000000000000 3.9997417600000000 -0.00184462 -0.00213266 4.78147844  0.00000000
H 4.0000000000000000 4.0000000000000000 5.0002582400000000 -0.00185134 0.00001989 -4.15393067  0.00000000
2
Lattice="8.00000000 0.00000000 0.00000000 0.00000000 8.00000000 0.00000000 0.00000000 0.00000000 8.00000000 " Properties=species:S:1:pos:R:3:forces:R:3:energies:R:1 energy=-5.97416931 pbc="T T T"
H 4.0000000000000000 3.9999896000000000 3.9858684800000000 0.00000857 0.00007698 4.33856323  0.00000000
H 4.0000000000000000 4.0000104000000000 5.0141315200000000 0.00001163 -0.00009987 -4.33802038  0.00000000
2
Lattice="8.00000000 0.00000000 0.00000000 0.00000000 8.00000000 0.00000000 0.00000000 0.00000000 8.00000000 " Properties=species:S:1:pos:R:3:forces:R:3:energies:R:1 energy=-6.20722190 pbc="T T T"
H 4.0000000800000000 3.9999800800000000 4.0138533600000000 0.00000758 0.00016181 3.95952028  0.00000000
H 3.9999999200000000 4.0000199200000000 4.9861466400000000 0.00000800 -0.00016699 -3.95966152  0.00000000
2
Lattice="8.00000000 0.00000000 0.00000000 0.00000000 8.00000000 0.00000000 0.00000000 0.00000000 8.00000000 " Properties=species:S:1:pos:R:3:forces:R:3:energies:R:1 energy=-6.62957257 pbc="T T T"
H 4.0000000800000000 3.9999721600000000 4.0800424800000000 -0.00013279 0.00021067 2.17637395  0.00000000
H 3.9999999200000000 4.0000278400000000 4.9199575200000000 -0.00009978 -0.00011749 -2.15096682  0.00000000
2
Lattice="8.00000000 0.00000000 0.00000000 0.00000000 8.00000000 0.00000000 0.00000000 0.00000000 8.00000000 " Properties=species:S:1:pos:R:3:forces:R:3:energies:R:1 energy=-6.57318953 pbc="T T T"
H 3.9999999200000000 3.9999657600000000 4.1671077600000000 -0.00007389 -0.00037610 -3.90966342  0.00000000
H 4.0000000800000000 4.0000342400000000 4.8328922400000000 -0.00007020 0.00042339 3.90442127  0.00000000
2
Lattice="8.00000000 0.00000000 0.00000000 0.00000000 8.00000000 0.00000000 0.00000000 0.00000000 8.00000000 " Properties=species:S:1:pos:R:3:forces:R:3:energies:R:1 energy=-5.82723242 pbc="T T T"
H 3.9999997600000000 3.9999555200000000 4.2164759200000000 -0.00001014 -0.00191258 -12.19529100  0.00000000
H 4.0000002400000000 4.0000444800000000 4.7835240800000000 0.00001048 0.00191275 12.19530926  0.00000000
2
Lattice="8.00000000 0.00000000 0.00000000 0.00000000 8.00000000 0.00000000 0.00000000 0.00000000 8.00000000 " Properties=species:S:1:pos:R:3:forces:R:3:energies:R:1 energy=-6.68263933 pbc="T T T"
H 3.9999995200000000 3.9999268800000000 4.1481772800000000 -0.00000170 -0.00040442 -1.96031966  0.00000000
H 4.0000004800000000 4.0000731200000000 4.8518227200000000 0.00000386 0.00040375 1.96031729  0.00000000
2
Lattice="8.00000000 0.00000000 0.00000000 0.00000000 8.00000000 0.00000000 0.00000000 0.00000000 8.00000000 " Properties=species:S:1:pos:R:3:forces:R:3:energies:R:1 energy=-6.53327398 pbc="T T T"
H 3.9999992000000000 3.9998943200000000 4.0609644800000000 0.00000534 0.00069314 2.84734940  0.00000000
H 4.0000008000000000 4.0001056800000000 4.9390355200000000 -0.00000502 -0.00069304 -2.84739950  0.00000000
2
Lattice="8.00000000 0.00000000 0.00000000 0.00000000 8.00000000 0.00000000 0.00000000 0.00000000 8.00000000 " Properties=species:S:1:pos:R:3:forces:R:3:energies:R:1 energy=-6.10467229 pbc="T T T"
H 3.9999989600000000 3.9998684000000000 4.0012246400000000 0.00000853 0.00109342 4.15236952  0.00000000
H 4.0000010400000000 4.0001316000000000 4.9987753600000000 -0.00000852 -0.00109345 -4.15237910  0.00000000
2
Lattice="8.00000000 0.00000000 0.00000000 0.00000000 8.00000000 0.00000000 0.00000000 0.00000000 8.00000000 " Properties=species:S:1:pos:R:3:forces:R:3:energies:R:1 energy=-5.93650072 pbc="T T T"
H 3.9999988000000000 3.9998531200000000 3.9815491200000000 0.00000996 0.00124085 4.38188488  0.00000000
H 4.0000012000000000 4.0001468800000000 5.0184508800000000 -0.00001001 -0.00124080 -4.38188006  0.00000000
2
Lattice="8.00000000 0.00000000 0.00000000 0.00000000 8.00000000 0.00000000 0.00000000 0.00000000 8.00000000 " Properties=species:S:1:pos:R:3:forces:R:3:energies:R:1 energy=-6.12887641 pbc="T T T"
H 3.9999987200000000 3.9998497600000000 4.0041524000000000 0.00001021 0.00123929 4.11200766  0.00000000
H 4.0000012800000000 4.0001502400000000 4.9958476000000000 -0.00001025 -0.00123922 -4.11199999  0.00000000
2
Lattice="8.00000000 0.00000000 0.00000000 0.00000000 8.00000000 0.00000000 0.00000000 0.00000000 8.00000000 " Properties=species:S:1:pos:R:3:forces:R:3:energies:R:1 energy=-6.56344912 pbc="T T T"
H 3.9999988000000000 3.9998583200000000 4.0664304000000000 0.00000742 0.00087755 2.66853921  0.00000000
H 4.0000012000000000 4.0001416800000000 4.9335696000000000 -0.00000746 -0.00087751 -2.66853663  0.00000000
2
Lattice="8.00000000 0.00000000 0.00000000 0.00000000 8.00000000 0.00000000 0.00000000 0.00000000 8.00000000 " Properties=species:S:1:pos:R:3:forces:R:3:energies:R:1 energy=-6.65433535 pbc="T T T"
H 3.9999988800000000 3.9998753600000000 4.1544558400000000 -0.00000799 -0.00091954 -2.55361270  0.00000000
H 4.0000011200000000 4.0001246400000000 4.8455441600000000 0.00000808 0.00091949 2.55359235  0.00000000
2
Lattice="8.00000000 0.00000000 0.00000000 0.00000000 8.00000000 0.00000000 0.00000000 0.00000000 8.00000000 " Properties=species:S:1:pos:R:3:forces:R:3:energies:R:1 energy=-5.79344891 pbc="T T T"
H 3.9999989600000000 3.9998836000000000 4.2178428000000000 -0.00004687 -0.00516946 -12.52145271  0.00000000
H 4.0000010400000000 4.0001164000000000 4.7821572000000000 0.00004687 0.00516945 12.52144890  0.00000000
2
Lattice="8.00000000 0.00000000 0.00000000 0.00000000 8.00000000 0.00000000 0.00000000 0.00000000 8.00000000 " Properties=species:S:1:pos:R:3:forces:R:3:energies:R:1 energy=-6.62041854 pbc="T T T"
H 3.9999985600000000 3.9998419200000000 4.1604161600000000 -0.00001376 -0.00147595 -3.15519474  0.00000000
H 4.0000014400000000 4.0001580800000000 4.8395838400000000 0.00001376 0.00147595 3.15519494  0.00000000
2
Lattice="8.00000000 0.00000000 0.00000000 0.00000000 8.00000000 0.00000000 0.00000000 0.00000000 8.00000000 " Properties=species:S:1:pos:R:3:forces:R:3:energies:R:1 energy=-6.59481716 pbc="T T T"
H 3.9999980000000000 3.9997859200000000 4.0725465600000000 0.00001159 0.00122471 2.45759969  0.00000000
H 4.0000020000000000 4.0002140800000000 4.9274534400000000 -0.00001159 -0.00122471 -2.45759979  0.00000000
2
Lattice="8.00000000 0.00000000 0.00000000 0.00000000 8.00000000 0.00000000 0.00000000 0.00000000 8.00000000 " Properties=species:S:1:pos:R:3:forces:R:3:energies:R:1 energy=-6.16344642 pbc="T T T"
H 3.9999975200000000 3.9997418400000000 4.0083891200000000 0.00002025 0.00212128 4.04807291  0.00000000
H 4.0000024800000000 4.0002581600000000 4.9916108800000000 -0.00002025 -0.00212128 -4.04807332  0.00000000
2
Lattice="8.00000000 0.00000000 0.00000000 0.00000000 8.00000000 0.00000000 0.00000000 0.00000000 8.00000000 " Properties=species:S:1:pos:R:3:forces:R:3:energies:R:1 energy=-5.95172410 pbc="T T T"
H 3.9999972800000000 3.9997181600000000 3.9832896800000000 0.00002289 0.00237636 4.36485660  0.00000000
H 4.0000027200000000 4.0002818400000000 5.0167103200000000 -0.00002289 -0.00237636 -4.36485663  0.00000000
2
Lattice="8.00000000 0.00000000 0.00000000 0.00000000 8.00000000 0.00000000 0.00000000 0.00000000 8.00000000 " Properties=species:S:1:pos:R:3:forces:R:3:energies:R:1 energy=-6.09702742 pbc="T T T"
H 3.9999972800000000 3.9997175200000000 4.0003047200000000 0.00002276 0.00235376 4.16580882  0.00000000
H 4.0000027200000000 4.0002824800000000 4.9996952800000000 -0.00002276 -0.00235376 -4.16580885  0.00000000
2
Lattice="8.00000000 0.00000000 0.00000000 0.00000000 8.00000000 0.00000000 0.00000000 0.00000000 8.00000000 " Properties=species:S:1:pos:R:3:forces:R:3:energies:R:1 energy=-6.51326016 pbc="T T T"
H 3.9999974400000000 3.9997394400000000 4.0575136000000000 0.00001705 0.00175234 2.95266538  0.00000000
H 4.0000025600000000 4.0002605600000000 4.9424864000000000 -0.00001705 -0.00175235 -2.95266526  0.00000000
2
Lattice="8.00000000 0.00000000 0.00000000 0.00000000 8.00000000 0.00000000 0.00000000 0.00000000 8.00000000 " Properties=species:S:1:pos:R:3:forces:R:3:energies:R:1 energy=-6.69990113 pbc="T T T"
H 3.9999978400000000 3.9997784000000000 4.1432114400000000 -0.00000921 -0.00093911 -1.53166611  0.00000000
H 4.0000021600000000 4.0002216000000000 4.8567885600000000 0.00000921 0.00093911 1.53166596  0.00000000
2
Lattice="8.00000000 0.00000000 0.00000000 0.00000000 8.00000000 0.00000000 0.00000000 0.00000000 8.00000000 " Properties=species:S:1:pos:R:3:forces:R:3:energies:R:1 energy=-5.88314409 pbc="T T T"
H 3.9999980800000000 3.9998082400000000 4.2141309600000000 -0.00007751 -0.00782971 -11.65086690  0.00000000
H 4.0000019200000000 4.0001917600000000 4.7858690400000000 0.00007751 0.00782971 11.65086690  0.00000000
2
Lattice="8.00000000 0.00000000 0.00000000 0.00000000 8.00000000 0.00000000 0.00000000 0.00000000 8.00000000 " Properties=species:S:1:pos:R:3:forces:R:3:energies:R:1 energy=-6.52657958 pbc="T T T"
H 3.9999976000000000 3.9997624800000000 4.1726367200000000 -0.00003327 -0.00332315 -4.56205865  0.00000000
H 4.0000024000000000 4.0002375200000000 4.8273632800000000 0.00003327 0.00332315 4.56205867  0.00000000
2
Lattice="8.00000000 0.00000000 0.00000000 0.00000000 8.00000000 0.00000000 0.00000000 0.00000000 8.00000000 " Properties=species:S:1:pos:R:3:forces:R:3:energies:R:1 energy=-6.65836612 pbc="T T T"
H 3.9999968000000000 3.9996847200000000 4.0871252800000000 0.00001439 0.00142881 1.88508532  0.00000000
H 4.0000032000000000 4.0003152800000000 4.9128747200000000 -0.00001439 -0.00142881 -1.88508532  0.00000000
2
Lattice="8.00000000 0.00000000 0.00000000 0.00000000 8.00000000 0.00000000 0.00000000 0.00000000 8.00000000 " Properties=species:S:1:pos:R:3:forces:R:3:energies:R:1 energy=-6.25370798 pbc="T T T"
H 3.9999961600000000 3.9996207200000000 4.0198021600000000 0.00003082 0.00304959 3.85503728  0.00000000
H 4.0000038400000000 4.0003792800000000 4.9801978400000000 -0.00003082 -0.00304959 -3.85503728  0.00000000
2
Lattice="8.00000000 0.00000000 0.00000000 0.00000000 8.00000000 0.00000000 0.00000000 0.00000000 8.00000000 " Properties=species:S:1:pos:R:3:forces:R:3:energies:R:1 energy=-6.00703809 pbc="T T T"
H 3.9999958400000000 3.9995862400000000 3.9896744800000000 0.00003538 0.00349176 4.29671494  0.00000000
H 4.0000041600000000 4.0004137600000000 5.0103255200000000 -0.00003538 -0.00349176 -4.29671494  0.00000000
2
Lattice="8.00000000 0.00000000 0.00000000 0.00000000 8.00000000 0.00000000 0.00000000 0.00000000 8.00000000 " Properties=species:S:1:pos:R:3:forces:R:3:energies:R:1 energy=-6.10284208 pbc="T T T"
H 3.9999957600000000 3.9995853600000000 4.0010038400000000 0.00003503 0.00344866 4.15645300  0.00000000
H 4.0000042400000000 4.0004146400000000 4.9989961600000000 -0.00003503 -0.00344866 -4.15645300  0.00000000
1
Lattice="8.00000000 0.00000000 0.00000000 0.00000000 8.00000000 0.00000000 0.00000000 0.00000000 8.00000000 " Properties=species:S:1:pos:R:3:forces:R:3:energies:R:1 energy=3.21 free_Energie=3.21 pbc="T T T"
H        0.00000000       0.00000000       0.00000000       0.00000000       0.00000000       0.00000000       3.21000000
