81
Lattice="9.312844978309194 0.0 0.0 0.0 9.312844978309194 0.0 0.0 0.0 9.312844978309194" Properties=species:S:1:pos:R:3:forces:R:3:energies:R:1 Energie=71.71319028943988 pbc="T T T"
O        0.00000000       0.00000000       0.11926200      -0.00000000      -0.00000000       8.11183591      -0.04479790
H        0.00000000       0.76323900       8.83579798       0.00000000       5.21893682      -4.05591796       1.35042099
H        0.00000000       8.54960598       8.83579798       0.00000000      -5.21893682      -4.05591796       1.35042099
O        0.00000000       0.00000000       3.22354366      -0.00000000       0.00000000       8.11183591      -0.04479790
H        0.00000000       0.76323900       2.62723466       0.00000000       5.21893682      -4.05591796       1.35042099
H        0.00000000       8.54960598       2.62723466       0.00000000      -5.21893682      -4.05591796       1.35042099
O        0.00000000       0.00000000       6.32782532      -0.00000000       0.00000000       8.11183591      -0.04479790
H        0.00000000       0.76323900       5.73151632       0.00000000       5.21893682      -4.05591796       1.35042099
H        0.00000000       8.54960598       5.73151632       0.00000000      -5.21893682      -4.05591796       1.35042099
O        0.00000000       3.10428166       0.11926200      -0.00000000       0.00000000       8.11183591      -0.04479790
H        0.00000000       3.86752066       8.83579798       0.00000000       5.21893682      -4.05591796       1.35042099
H        0.00000000       2.34104266       8.83579798       0.00000000      -5.21893682      -4.05591796       1.35042099
O        0.00000000       3.10428166       3.22354366      -0.00000000      -0.00000000       8.11183591      -0.04479790
H        0.00000000       3.86752066       2.62723466       0.00000000       5.21893682      -4.05591796       1.35042099
H        0.00000000       2.34104266       2.62723466       0.00000000      -5.21893682      -4.05591796       1.35042099
O        0.00000000       3.10428166       6.32782532      -0.00000000      -0.00000000       8.11183591      -0.04479790
H        0.00000000       3.86752066       5.73151632       0.00000000       5.21893682      -4.05591796       1.35042099
H        0.00000000       2.34104266       5.73151632       0.00000000      -5.21893682      -4.05591796       1.35042099
O        0.00000000       6.20856332       0.11926200      -0.00000000      -0.00000000       8.11183591      -0.04479790
H        0.00000000       6.97180232       8.83579798       0.00000000       5.21893682      -4.05591796       1.35042099
H        0.00000000       5.44532432       8.83579798       0.00000000      -5.21893682      -4.05591796       1.35042099
O        0.00000000       6.20856332       3.22354366      -0.00000000      -0.00000000       8.11183591      -0.04479790
H        0.00000000       6.97180232       2.62723466       0.00000000       5.21893682      -4.05591796       1.35042099
H        0.00000000       5.44532432       2.62723466       0.00000000      -5.21893682      -4.05591796       1.35042099
O        0.00000000       6.20856332       6.32782532      -0.00000000      -0.00000000       8.11183591      -0.04479790
H        0.00000000       6.97180232       5.73151632       0.00000000       5.21893682      -4.05591796       1.35042099
H        0.00000000       5.44532432       5.73151632       0.00000000      -5.21893682      -4.05591796       1.35042099
O        3.10428166       0.00000000       0.11926200      -0.00000000      -0.00000000       8.11183591      -0.04479790
H        3.10428166       0.76323900       8.83579798      -0.00000000       5.21893682      -4.05591796       1.35042099
H        3.10428166       8.54960598       8.83579798       0.00000000      -5.21893682      -4.05591796       1.35042099
O        3.10428166       0.00000000       3.22354366      -0.00000000       0.00000000       8.11183591      -0.04479790
H        3.10428166       0.76323900       2.62723466      -0.00000000       5.21893682      -4.05591796       1.35042099
H        3.10428166       8.54960598       2.62723466       0.00000000      -5.21893682      -4.05591796       1.35042099
O        3.10428166       0.00000000       6.32782532      -0.00000000      -0.00000000       8.11183591      -0.04479790
H        3.10428166       0.76323900       5.73151632       0.00000000       5.21893682      -4.05591796       1.35042099
H        3.10428166       8.54960598       5.73151632       0.00000000      -5.21893682      -4.05591796       1.35042099
O        3.10428166       3.10428166       0.11926200      -0.00000000       0.00000000       8.11183591      -0.04479790
H        3.10428166       3.86752066       8.83579798      -0.00000000       5.21893682      -4.05591796       1.35042099
H        3.10428166       2.34104266       8.83579798      -0.00000000      -5.21893682      -4.05591796       1.35042099
O        3.10428166       3.10428166       3.22354366      -0.00000000      -0.00000000       8.11183591      -0.04479790
H        3.10428166       3.86752066       2.62723466      -0.00000000       5.21893682      -4.05591796       1.35042099
H        3.10428166       2.34104266       2.62723466       0.00000000      -5.21893682      -4.05591796       1.35042099
O        3.10428166       3.10428166       6.32782532      -0.00000000      -0.00000000       8.11183591      -0.04479790
H        3.10428166       3.86752066       5.73151632       0.00000000       5.21893682      -4.05591796       1.35042099
H        3.10428166       2.34104266       5.73151632      -0.00000000      -5.21893682      -4.05591796       1.35042099
O        3.10428166       6.20856332       0.11926200      -0.00000000      -0.00000000       8.11183591      -0.04479790
H        3.10428166       6.97180232       8.83579798       0.00000000       5.21893682      -4.05591796       1.35042099
H        3.10428166       5.44532432       8.83579798       0.00000000      -5.21893682      -4.05591796       1.35042099
O        3.10428166       6.20856332       3.22354366       0.00000000      -0.00000000       8.11183591      -0.04479790
H        3.10428166       6.97180232       2.62723466      -0.00000000       5.21893682      -4.05591796       1.35042099
H        3.10428166       5.44532432       2.62723466      -0.00000000      -5.21893682      -4.05591796       1.35042099
O        3.10428166       6.20856332       6.32782532       0.00000000      -0.00000000       8.11183591      -0.04479790
H        3.10428166       6.97180232       5.73151632      -0.00000000       5.21893682      -4.05591796       1.35042099
H        3.10428166       5.44532432       5.73151632       0.00000000      -5.21893682      -4.05591796       1.35042099
O        6.20856332       0.00000000       0.11926200      -0.00000000      -0.00000000       8.11183591      -0.04479790
H        6.20856332       0.76323900       8.83579798      -0.00000000       5.21893682      -4.05591796       1.35042099
H        6.20856332       8.54960598       8.83579798      -0.00000000      -5.21893682      -4.05591796       1.35042099
O        6.20856332       0.00000000       3.22354366       0.00000000       0.00000000       8.11183591      -0.04479790
H        6.20856332       0.76323900       2.62723466      -0.00000000       5.21893682      -4.05591796       1.35042099
H        6.20856332       8.54960598       2.62723466      -0.00000000      -5.21893682      -4.05591796       1.35042099
O        6.20856332       0.00000000       6.32782532      -0.00000000      -0.00000000       8.11183591      -0.04479790
H        6.20856332       0.76323900       5.73151632      -0.00000000       5.21893682      -4.05591796       1.35042099
H        6.20856332       8.54960598       5.73151632      -0.00000000      -5.21893682      -4.05591796       1.35042099
O        6.20856332       3.10428166       0.11926200       0.00000000      -0.00000000       8.11183591      -0.04479790
H        6.20856332       3.86752066       8.83579798      -0.00000000       5.21893682      -4.05591796       1.35042099
H        6.20856332       2.34104266       8.83579798      -0.00000000      -5.21893682      -4.05591796       1.35042099
O        6.20856332       3.10428166       3.22354366       0.00000000      -0.00000000       8.11183591      -0.04479790
H        6.20856332       3.86752066       2.62723466      -0.00000000       5.21893682      -4.05591796       1.35042099
H        6.20856332       2.34104266       2.62723466      -0.00000000      -5.21893682      -4.05591796       1.35042099
O        6.20856332       3.10428166       6.32782532       0.00000000      -0.00000000       8.11183591      -0.04479790
H        6.20856332       3.86752066       5.73151632      -0.00000000       5.21893682      -4.05591796       1.35042099
H        6.20856332       2.34104266       5.73151632      -0.00000000      -5.21893682      -4.05591796       1.35042099
O        6.20856332       6.20856332       0.11926200       0.00000000       0.00000000       8.11183591      -0.04479790
H        6.20856332       6.97180232       8.83579798      -0.00000000       5.21893682      -4.05591796       1.35042099
H        6.20856332       5.44532432       8.83579798      -0.00000000      -5.21893682      -4.05591796       1.35042099
O        6.20856332       6.20856332       3.22354366       0.00000000      -0.00000000       8.11183591      -0.04479790
H        6.20856332       6.97180232       2.62723466      -0.00000000       5.21893682      -4.05591796       1.35042099
H        6.20856332       5.44532432       2.62723466      -0.00000000      -5.21893682      -4.05591796       1.35042099
O        6.20856332       6.20856332       6.32782532       0.00000000      -0.00000000       8.11183591      -0.04479790
H        6.20856332       6.97180232       5.73151632      -0.00000000       5.21893682      -4.05591796       1.35042099
H        6.20856332       5.44532432       5.73151632      -0.00000000      -5.21893682      -4.05591796       1.35042099
81
Lattice="9.312844978309194 0.0 0.0 0.0 9.312844978309194 0.0 0.0 0.0 9.312844978309194" Properties=species:S:1:pos:R:3:forces:R:3:energies:R:1 Energie=53.410865478726016 pbc="T T T"
O        9.31251610       0.00020498       0.13942819      -0.00220431      -0.00952646      -2.00028119       1.11035575
H        9.31198168       0.90431990       8.68189737       0.00042380      -1.37446815       1.00030564       0.43449582
H        9.31150870       8.40467590       8.68403521       0.00124748       1.38794884       1.00120677       0.43270394
O        9.31239519       0.00055812       3.24327465      -0.00136759       0.00678750      -2.01682012       1.11387694
H        9.31083675       0.90782994       2.47261640       0.00168685      -1.39276685       1.01069986       0.43191728
H        0.00034253       8.40770488       2.47390483      -0.00123238       1.38351317       1.00593033       0.43381106
O        0.00025559       9.31259198       6.34717393       0.00210403      -0.00184240      -1.99742386       1.10915232
H        0.00010278       0.90528585       5.57774456       0.00019681      -1.37421786       0.99738408       0.43410940
H        0.00200843       8.40680079       5.57733671      -0.00191789       1.37846626       0.99931492       0.43360572
O        9.31276555       3.10365296       0.13842209       0.00215270      -0.00018432      -1.99287271       1.10857015
H        0.00037479       4.01119406       8.68378501      -0.00044233      -1.37808503       0.99318210       0.43403576
H        0.00102759       2.19875173       8.68108371      -0.00117533       1.37524684       0.99975525       0.43393812
O        0.00022898       3.10393430       3.24310437      -0.00080453      -0.00280680      -2.00338655       1.11055119
H        9.31185813       4.00865311       2.47262353       0.00167723      -1.37737453       1.00200381       0.43390642
H        0.00074186       2.19769392       2.47300076      -0.00029333       1.38131303       1.00137701       0.43320733
O        0.00010744       3.10455215       6.34779832       0.00096201      -0.01467093      -2.01237182       1.11227694
H        0.00017864       4.00897419       5.57767622       0.00006451      -1.37756689       1.00073983       0.43453647
H        0.00038698       2.19752454       5.57699712      -0.00031852       1.39047326       1.01144651       0.43175010
O        0.00041439       6.20845821       0.13896773      -0.00247933      -0.00883631      -2.01093884       1.11336240
H        9.31204236       7.11450407       8.68257194       0.00166783      -1.38439994       1.00113636       0.43400732
H        9.31231168       5.30132177       8.68143675       0.00109999       1.39267896       1.00915265       0.43218719
O        9.31258913       6.20808087       3.24282158       0.00067179      -0.00181982      -2.00011623       1.10886470
H        0.00143409       7.11305758       2.47283499      -0.00209231      -1.37467449       0.99979328       0.43394782
H        9.31141781       5.30224495       2.47314981       0.00150636       1.37753969       1.00015813       0.43354152
O        9.31279942       6.20819673       6.34722744      -0.00216919      -0.00091249      -2.00547109       1.11152004
H        9.31214582       7.11489528       5.57818262       0.00046261      -1.38377820       1.00208767       0.43342763
H        9.31192056       5.30191325       5.57761856       0.00098184       1.38407517       1.00390997       0.43328507
O        3.10442660       0.00064154       0.13848471       0.00160159      -0.00971202      -2.01906545       1.11478198
H        3.10450475       0.90679273       8.68160860       0.00022894      -1.38589297       1.00413139       0.43362927
H        3.10548396       8.40677124       8.68037238      -0.00098667       1.39145698       1.01396739       0.43194328
O        3.10439710       9.31219104       3.24242246       0.00183193       0.01274290      -1.99309409       1.10921054
H        3.10512115       0.90644692       2.47276331      -0.00085334      -1.38315337       1.00241380       0.43266373
H        3.10495790       8.40632938       2.47464545      -0.00092152       1.37414197       0.99100659       0.43521674
O        3.10478583       9.31281543       6.34742877      -0.00439000       0.00708183      -2.01845688       1.11408702
H        3.10217216       0.90702443       5.57699320       0.00316952      -1.39154336       1.01131552       0.43209821
H        3.10390705       8.40772991       5.57672755       0.00122900       1.38372790       1.00764725       0.43349217
O        3.10485124       3.10470862       0.13892492      -0.00466930      -0.01910666      -2.00657343       1.11224882
H        3.10358164       4.00936550       8.68272789       0.00126671      -1.37679376       0.99695037       0.43520997
H        3.10236675       2.19623434       8.68180630       0.00298021       1.39447618       1.00987039       0.43140635
O        3.10401604       3.10435078       3.24289771      -0.00122356      -0.00580085      -2.00247782       1.11060328
H        3.10255418       4.00936126       2.47277086       0.00159925      -1.37735072       0.99987141       0.43407323
H        3.10453633       2.19759431       2.47338273      -0.00078143       1.38286550       1.00237711       0.43306036
O        3.10417318       3.10444878       6.34699488      -0.00164298      -0.00184470      -2.00731309       1.11251513
H        3.10304253       4.01147744       5.57812694       0.00101487      -1.38594130       1.00198245       0.43342512
H        3.10422341       2.19820587       5.57693638       0.00020811       1.38403804       1.00520906       0.43312286
O        3.10357637       6.20859026       0.13860434       0.00141045       0.00389461      -2.01079955       1.11252861
H        3.10253115       7.11473328       8.68086978       0.00100988      -1.38427787       1.00814268       0.43271822
H        3.10610004       5.30199125       8.68253810      -0.00298839       1.38627357       1.00295444       0.43355386
O        3.10430553       6.20875537       3.24280449       0.00367880      -0.00457387      -2.01052976       1.11294123
H        3.10639502       7.11476916       2.47276961      -0.00253777      -1.38756610       1.00470138       0.43333752
H        3.10493995       5.30147909       2.47367937      -0.00046243       1.38871627       1.00625276       0.43284105
O        3.10468490       6.20851890       6.34662364       0.00017064       0.00272586      -2.01227116       1.11316448
H        3.10317090       7.11485271       5.57666783       0.00193221      -1.38613006       1.00749755       0.43296786
H        3.10632015       5.30190634       5.57694084      -0.00171208       1.38750555       1.00441075       0.43316385
O        6.20902723       0.00018505       0.13930027      -0.00311551       0.00069973      -2.01017549       1.11278868
H        6.20864272       0.90718750       8.68303608       0.00055083      -1.38878853       1.00457365       0.43312731
H        6.20698742       8.40713707       8.68173706       0.00235140       1.38479726       1.00618236       0.43312371
O        6.20866326       0.00014155       3.24286868      -0.00065211       0.00025445      -2.01293565       1.11437047
H        6.20794535       0.90736143       2.47356659       0.00115379      -1.39071922       1.00675064       0.43291218
H        6.20871107       8.40563397       2.47372713       0.00024796       1.39097025       1.00589219       0.43297386
O        6.20864060       0.00016149       6.34718950      -0.00171364      -0.02191293      -2.00411028       1.11239411
H        6.20801090       0.90617995       5.58000964       0.00077489      -1.38082847       0.99268693       0.43554680
H        6.20819317       8.40458053       5.57689263       0.00053447       1.39428545       1.01157004       0.43119918
O        6.20814389       3.10402639       0.13867258      -0.00152304       0.00832592      -1.98700289       1.10720005
H        6.20728424       4.01046956       8.68235746       0.00073519      -1.37876977       0.99719808       0.43348677
H        6.20812475       2.19896758       8.68264326      -0.00006306       1.37041704       0.99053920       0.43502949
O        6.20829464       3.10454350       3.24298623      -0.00168096       0.00414249      -2.00962578       1.11308080
H        6.20883540       4.01186032       2.47373217      -0.00058112      -1.38983726       1.00593642       0.43280356
H        6.20655360       2.19804813       2.47367927       0.00210381       1.38531179       1.00294326       0.43353576
O        6.20802566       3.10450401       6.34680650       0.00273964       0.00102424      -1.96823968       1.10346080
H        6.21003263       4.01016146       5.57864814      -0.00252533      -1.36639369       0.98585736       0.43501354
H        6.20830758       2.19778017       5.58009921      -0.00029592       1.36982852       0.98247869       0.43524646
O        6.20880387       6.20809446       0.13834135       0.00258109       0.01419707      -1.99232414       1.10856450
H        6.20945209       7.11568733       8.68222606      -0.00047111      -1.38244918       1.00090107       0.43271898
H        6.21001829       5.30312152       8.68266483      -0.00118472       1.37143540       0.99142164       0.43531659
O        6.20852680       6.20876843       3.24282663      -0.00385645       0.00385979      -1.99621982       1.10993988
H        6.20639979       7.11553065       2.47364409       0.00243794      -1.38211770       0.99916102       0.43342062
H        6.20775595       5.30301427       2.47357175       0.00082978       1.37777402       0.99717307       0.43417636
O        6.20912215       6.20866052       6.34696806      -0.00015929       0.00355015      -2.00535814       1.11166184
H        6.20855568       7.11491238       5.57657052       0.00080909      -1.38287801       1.00387276       0.43299184
H        6.20950964       5.30250849       5.57786657      -0.00059901       1.38375041       1.00083068       0.43383219
81
Lattice="9.312844978309194 0.0 0.0 0.0 9.312844978309194 0.0 0.0 0.0 9.312844978309194" Properties=species:S:1:pos:R:3:forces:R:3:energies:R:1 Energie=70.43550628474672 pbc="T T T"
O        9.31252709       0.00033816       0.15899080      -0.01310237      -0.01335210      -4.01804529       1.79570269
H        9.30897056       0.93848431       8.53587960       0.00983444      -1.79143168       2.02023359       0.40891693
H        9.31055385       8.36985858       8.54738954       0.00396128       1.81283562       1.99806953       0.40579669
O        9.31092289       0.00192068       3.26194741      -0.00332793       0.00921649      -4.01300532       1.79828699
H        9.30380993       0.94040340       2.33369564       0.01863407      -1.82005566       2.01524210       0.40577995
H        0.00433741       8.36887497       2.33095636      -0.01464975       1.79247502       1.99757619       0.40923827
O        0.00012413       9.31251382       6.36484790       0.01675676       0.00287483      -4.01862219       1.79378405
H        9.31247558       0.93943717       5.43501004       0.00121274      -1.81745850       2.01349063       0.40709462
H        0.00870905       8.37031349       5.43606874      -0.02187533       1.80688643       2.00447612       0.40732592
O        9.31220352       3.10243818       0.15504344       0.02081276       0.01421452      -4.01025850       1.78938697
H        0.00422535       4.04605319       8.54494456      -0.01222190      -1.82364430       1.99552174       0.40570553
H        0.00431348       2.16465922       8.53409716      -0.01285631       1.78969891       2.01411488       0.40790670
O        0.00087016       3.10253302       3.26171533      -0.01310580       0.00494059      -4.04008736       1.79236749
H        9.30673830       4.03832220       2.32652788       0.01605973      -1.80809077       2.03121172       0.40842003
H        0.00177156       2.16362747       2.33163099      -0.00459128       1.81196511       2.01027552       0.40643092
O        0.00001941       3.10420381       6.36592693       0.00623854      -0.01878646      -4.01778356       1.79287333
H        0.00330815       4.04517416       5.43216594      -0.00845672      -1.78746255       2.00614601       0.40858415
H        9.31211957       2.16491826       5.43953050       0.00190172       1.82260287       2.01145840       0.40565567
O        0.00100620       6.20830499       0.15736181      -0.01829786      -0.00790851      -4.00915537       1.79349495
H        9.30848405       7.15011767       8.53899615       0.01239477      -1.79928015       2.00307267       0.40767308
H        9.31041013       5.26890770       8.54160854       0.00895513       1.81786882       2.01047437       0.40620535
O        9.31276704       6.20778860       3.26056842      -0.00599829      -0.01396646      -4.02847385       1.79228969
H        0.00240820       7.14893500       2.33086233      -0.00531250      -1.78976936       2.00019338       0.40685488
H        9.30764132       5.27010501       2.32944884       0.01158352       1.81486943       2.02511780       0.40763533
O        9.31181520       6.20758316       6.36571109      -0.00457316       0.00306460      -4.01951382       1.79470316
H        9.31058622       7.14764844       5.43586432       0.00521231      -1.80598268       2.00980270       0.40687964
H        9.31164652       5.26734843       5.43451516       0.00135090       1.79400628       2.00809553       0.40734410
O        3.10476195       0.00079613       0.15594942       0.00352652      -0.00907587      -4.02262034       1.79253373
H        3.10526319       0.94338437       8.53951418      -0.00339136      -1.80732431       1.99945759       0.40723119
H        3.10590048       8.37705070       8.53712555      -0.00487491       1.81702998       2.02423666       0.40705197
O        3.10547999       9.31203557       3.26019950       0.01003455       0.01420532      -4.01561048       1.79493367
H        3.10619993       0.93683110       2.33147643      -0.00120095      -1.82630830       2.02236138       0.40626941
H        3.10887386       8.36740085       2.32976547      -0.00727849       1.78672388       1.99387778       0.40819137
O        3.10537128       0.00065028       6.36614904      -0.02565876       0.01237338      -4.02692852       1.79317059
H        3.09832335       0.93852229       5.43702566       0.01672313      -1.81470371       2.01686755       0.40619184
H        3.10072763       8.37370974       5.43237683       0.01001708       1.79453161       2.01097067       0.40827602
O        3.10521379       3.10439732       0.15713731      -0.03278049      -0.01565704      -4.00133661       1.79557061
H        3.10060892       4.04787198       8.53721995       0.01217852      -1.77566786       1.99630611       0.40860170
H        3.09439819       2.16394909       8.54464753       0.02667512       1.81690349       2.00447344       0.40519238
O        3.10349172       3.10490837       3.26075806      -0.00293128      -0.01634775      -4.02107116       1.79081852
H        3.09787157       4.04359851       2.32774279       0.01480279      -1.79593033       2.01062280       0.40761414
H        3.10782265       2.16440505       2.33395261      -0.01018167       1.82536682       2.01125290       0.40652918
O        3.10441912       3.10382820       6.36510799      -0.01649095       0.00194396      -4.02476298       1.79701842
H        3.09910180       4.04692113       5.43646153       0.01413947      -1.80909034       2.00499530       0.40757066
H        3.10225237       2.16454668       5.43353743       0.00395115       1.81389424       2.01958033       0.40769231
O        3.10203458       6.20889582       0.15632870       0.00109693       0.02311733      -4.02315959       1.79811760
H        3.09525788       7.14792601       8.54081666       0.01804504      -1.82872994       2.02467925       0.40688184
H        3.11013548       5.26522969       8.53699992      -0.02043986       1.77951416       1.99823982       0.40846255
O        3.10484832       6.20904609       3.26126893       0.01600075      -0.01629684      -4.01482737       1.79741364
H        3.11026295       7.14933785       2.32847468      -0.01247388      -1.78480932       2.00470307       0.40740878
H        3.10655730       5.26716729       2.33307482      -0.00570882       1.81126222       2.00926891       0.40708536
O        3.10569620       6.20867604       6.36394434      -0.00587849       0.00475881      -4.01318201       1.79178152
H        3.09945867       7.15022266       5.43568232       0.01445562      -1.80284812       2.00364075       0.40693265
H        3.10914412       5.26947334       5.43349247      -0.01019654       1.80096695       2.00806975       0.40674558
O        6.20912626       9.31261651       0.15781324       0.00198482       0.01399918      -4.02874520       1.79613821
H        6.21186662       0.94311559       8.54431208      -0.00784177      -1.81020869       2.00159100       0.40662621
H        6.20711816       8.37710303       8.53363015       0.00499308       1.80404136       2.02875348       0.40834159
O        6.20913526       0.00005862       3.26108915      -0.00123187      -0.00306858      -4.01993584       1.79397797
H        6.20623648       0.94242114       2.33224185       0.00570844      -1.80224047       2.00177117       0.40719991
H        6.21138614       8.37343392       2.33078225      -0.00786890       1.81623775       2.01733448       0.40748026
O        6.20954137       9.31236059       6.36451980      -0.00949387      -0.03115208      -4.00336985       1.79521895
H        6.20617482       0.94435565       5.42963819       0.00767295      -1.77542109       1.99353584       0.40981305
H        6.20852292       8.37372818       5.44084134       0.00184394       1.83293199       2.01123871       0.40430476
O        6.20838132       3.10457421       0.15706160      -0.01303003      -0.00278699      -4.01841488       1.79667109
H        6.20642964       4.04345386       8.53851276       0.00547034      -1.79086168       2.00666004       0.40639417
H        6.20459485       2.16442629       8.53758169       0.01012285       1.80018974       2.01142819       0.40764424
O        6.20783928       3.10508301       3.26095084      -0.01109254       0.00459757      -4.00714848       1.79686490
H        6.20844845       4.04911354       2.33388351      -0.00159099      -1.80515574       1.99865516       0.40701081
H        6.20228573       2.16396795       2.33056004       0.01346214       1.80248098       2.00841494       0.40740423
O        6.20762772       3.10487974       6.36447072       0.01444017       0.00041809      -4.00794277       1.79213982
H        6.21502705       4.04232937       5.43172836      -0.01728486      -1.79961585       2.01780893       0.40749408
H        6.20709980       2.16082043       5.43896227       0.00121233       1.78918377       1.98662781       0.40596162
O        6.20956562       6.20778541       0.15458906       0.00266545       0.02553899      -4.00149817       1.79492597
H        6.20857176       7.15067565       8.54501503       0.00208188      -1.82856500       2.00746029       0.40592159
H        6.21156238       5.26210854       8.53729101      -0.00565996       1.79091507       1.99366913       0.40872268
O        6.20840116       6.20933104       3.26122347      -0.02195340       0.01130981      -4.02101449       1.79111988
H        6.19915918       7.14566872       2.33021404       0.02358614      -1.81313017       2.02196837       0.40656202
H        6.20784990       5.26887890       2.32956423       0.00117550       1.79201803       2.00207122       0.40721451
O        6.20989567       6.20907837       6.36371628      -0.00070361       0.00054318      -4.02576902       1.79565993