<?xml version="1.0" encoding="ISO-8859-1"?>
<modeling>
 <generator>
  <i name="program" type="string">vasp </i>
  <i name="version" type="string">6.1.0  </i>
  <i name="subversion" type="string">28Jan20 (build Aug 17 2020 17:33:25) gamma-only                       parallel </i>
  <i name="platform" type="string">LinuxGNU </i>
  <i name="date" type="string">2021 03 13 </i>
  <i name="time" type="string">19:54:30 </i>
 </generator>
 <incar>
  <i type="int" name="IBRION">     0</i>
  <i name="EDIFF">      0.00001000</i>
  <i type="int" name="NSW">    50</i>
  <i type="int" name="ISIF">     2</i>
  <i type="int" name="ISYM">     0</i>
  <i name="ENCUT">    400.00000000</i>
  <i name="POTIM">      1.00000000</i>
  <i name="TEBEG">      0.00000000</i>
  <i name="SMASS">     -3.00000000</i>
  <i type="string" name="LREAL"> Auto</i>
  <i type="int" name="ISMEAR">     0</i>
  <i name="SIGMA">      0.01000000</i>
  <i type="int" name="MDALGO">     0</i>
  <i type="int" name="NCORE">     2</i>
  <i name="EDIFF">      0.00001000</i>
 </incar>
 <primitive_cell>
  <structure name="primitive_cell" >
   <crystal>
    <varray name="basis" >
     <v>       8.00000000       0.00000000       0.00000000 </v>
     <v>       0.00000000       8.00000000       0.00000000 </v>
     <v>       0.00000000       0.00000000       8.00000000 </v>
    </varray>
    <i name="volume">    512.00000000 </i>
    <varray name="rec_basis" >
     <v>       0.12500000       0.00000000       0.00000000 </v>
     <v>       0.00000000       0.12500000       0.00000000 </v>
     <v>       0.00000000       0.00000000       0.12500000 </v>
    </varray>
   </crystal>
   <varray name="positions" >
    <v>       0.50000000       0.50000000       0.50000000 </v>
    <v>       0.50000000       0.50000000       0.62500000 </v>
   </varray>
  </structure>
  <varray name="primitive_index" >
   <v type="int" >        1 </v>
   <v type="int" >        2 </v>
  </varray>
 </primitive_cell>
 <kpoints>
  <generation param="Gamma">
   <v type="int" name="divisions">       1        1        1 </v>
   <v name="usershift">      0.00000000       0.00000000       0.00000000 </v>
   <v name="genvec1">      1.00000000       0.00000000       0.00000000 </v>
   <v name="genvec2">      0.00000000       1.00000000       0.00000000 </v>
   <v name="genvec3">      0.00000000       0.00000000       1.00000000 </v>
   <v name="shift">      0.00000000       0.00000000       0.00000000 </v>
  </generation>
  <varray name="kpointlist" >
   <v>       0.00000000       0.00000000       0.00000000 </v>
  </varray>
  <varray name="weights" >
   <v>       1.00000000 </v>
  </varray>
 </kpoints>
 <parameters>
  <separator name="general" >
   <i type="string" name="SYSTEM">unknown system</i>
   <i type="logical" name="LCOMPAT"> F  </i>
  </separator>
  <separator name="electronic" >
   <i type="string" name="PREC">normal</i>
   <i name="ENMAX">    400.00000000</i>
   <i name="ENAUG">    500.00000000</i>
   <i name="EDIFF">      0.00001000</i>
   <i type="int" name="IALGO">    38</i>
   <i type="int" name="IWAVPR">    12</i>
   <i type="int" name="NBANDS">     6</i>
   <i type="int" name="NBANDSLOW">    -1</i>
   <i type="int" name="NBANDSHIGH">    -1</i>
   <i name="NELECT">      2.00000000</i>
   <i type="int" name="TURBO">     0</i>
   <i type="int" name="IRESTART">     0</i>
   <i type="int" name="NREBOOT">     0</i>
   <i type="int" name="NMIN">     0</i>
   <i name="EREF">      0.00000000</i>
   <separator name="electronic smearing" >
    <i type="int" name="ISMEAR">     0</i>
    <i name="SIGMA">      0.01000000</i>
    <i name="KSPACING">      0.50000000</i>
    <i type="logical" name="KGAMMA"> T  </i>
    <i type="logical" name="KBLOWUP"> T  </i>
   </separator>
   <separator name="electronic projectors" >
    <i type="logical" name="LREAL"> T  </i>
    <v name="ROPT">     -0.00050000</v>
    <i type="int" name="LMAXPAW">  -100</i>
    <i type="int" name="LMAXMIX">     2</i>
    <i type="logical" name="NLSPLINE"> F  </i>
   </separator>
   <separator name="electronic startup" >
    <i type="int" name="ISTART">     1</i>
    <i type="int" name="ICHARG">     0</i>
    <i type="int" name="INIWAV">     1</i>
   </separator>
   <separator name="electronic spin" >
    <i type="int" name="ISPIN">     1</i>
    <i type="logical" name="LNONCOLLINEAR"> F  </i>
    <v name="MAGMOM">      1.00000000      1.00000000</v>
    <i name="NUPDOWN">     -1.00000000</i>
    <i type="logical" name="LSORBIT"> F  </i>
    <v name="SAXIS">      0.00000000      0.00000000      1.00000000</v>
    <i type="logical" name="LSPIRAL"> F  </i>
    <v name="QSPIRAL">      0.00000000      0.00000000      0.00000000</v>
    <i type="logical" name="LZEROZ"> F  </i>
   </separator>
   <separator name="electronic exchange-correlation" >
    <i type="logical" name="LASPH"> F  </i>
    <i type="logical" name="LMETAGGA"> F  </i>
   </separator>
   <separator name="electronic convergence" >
    <i type="int" name="NELM">    60</i>
    <i type="int" name="NELMDL">     0</i>
    <i type="int" name="NELMIN">     2</i>
    <i name="ENINI">    400.00000000</i>
    <separator name="electronic convergence detail" >
     <i type="logical" name="LDIAG"> T  </i>
     <i type="logical" name="LSUBROT"> F  </i>
     <i name="WEIMIN">      0.00100000</i>
     <i name="EBREAK">      0.00000042</i>
     <i name="DEPER">      0.30000000</i>
     <i type="int" name="NRMM">     4</i>
     <i name="TIME">      0.40000000</i>
    </separator>
   </separator>
   <separator name="electronic mixer" >
    <i name="AMIX">      0.40000000</i>
    <i name="BMIX">      1.00000000</i>
    <i name="AMIN">      0.10000000</i>
    <i name="AMIX_MAG">      1.60000000</i>
    <i name="BMIX_MAG">      1.00000000</i>
    <separator name="electronic mixer details" >
     <i type="int" name="IMIX">     4</i>
     <i type="logical" name="MIXFIRST"> F  </i>
     <i type="int" name="MAXMIX">   -45</i>
     <i name="WC">    100.00000000</i>
     <i type="int" name="INIMIX">     1</i>
     <i type="int" name="MIXPRE">     1</i>
     <i type="int" name="MREMOVE">     5</i>
    </separator>
   </separator>
   <separator name="electronic dipolcorrection" >
    <i type="logical" name="LDIPOL"> F  </i>
    <i type="logical" name="LMONO"> F  </i>
    <i type="int" name="IDIPOL">     0</i>
    <i name="EPSILON">      1.00000000</i>
    <v name="DIPOL">   -100.00000000   -100.00000000   -100.00000000</v>
    <i name="EFIELD">      0.00000000</i>
   </separator>
  </separator>
  <separator name="grids" >
   <i type="int" name="NGX">    40</i>
   <i type="int" name="NGY">    40</i>
   <i type="int" name="NGZ">    40</i>
   <i type="int" name="NGXF">    80</i>
   <i type="int" name="NGYF">    80</i>
   <i type="int" name="NGZF">    80</i>
   <i type="logical" name="ADDGRID"> F  </i>
  </separator>
  <separator name="ionic" >
   <i type="int" name="NSW">    50</i>
   <i type="int" name="IBRION">     0</i>
   <i type="int" name="MDALGO">     0</i>
   <i type="int" name="ISIF">     2</i>
   <i name="PSTRESS">      0.00000000</i>
   <i name="EDIFFG">      0.00010000</i>
   <i type="int" name="NFREE">     0</i>
   <i name="POTIM">      1.00000000</i>
   <i name="SMASS">     -3.00000000</i>
   <i name="SCALEE">      1.00000000</i>
  </separator>
  <separator name="ionic md" >
   <i name="TEBEG">      0.00000000</i>
   <i name="TEEND">      0.00000000</i>
   <i type="int" name="NBLOCK">     1</i>
   <i type="int" name="KBLOCK">    50</i>
   <i type="int" name="NPACO">   256</i>
   <i name="APACO">     16.00000000</i>
  </separator>
  <separator name="symmetry" >
   <i type="int" name="ISYM">     0</i>
   <i name="SYMPREC">      0.00001000</i>
  </separator>
  <separator name="dos" >
   <i type="int" name="LORBIT">     5</i>
   <v name="RWIGS">     -1.00000000</v>
   <i type="int" name="NEDOS">   301</i>
   <i name="EMIN">     10.00000000</i>
   <i name="EMAX">    -10.00000000</i>
   <i name="EFERMI">      0.00000000</i>
  </separator>
  <separator name="writing" >
   <i type="int" name="NWRITE">     2</i>
   <i type="logical" name="LWAVE"> T  </i>
   <i type="logical" name="LDOWNSAMPLE"> F  </i>
   <i type="logical" name="LCHARG"> T  </i>
   <i type="logical" name="LPARD"> F  </i>
   <i type="logical" name="LVTOT"> F  </i>
   <i type="logical" name="LVHAR"> F  </i>
   <i type="logical" name="LELF"> F  </i>
   <i type="logical" name="LOPTICS"> F  </i>
   <v name="STM">      0.00000000      0.00000000      0.00000000      0.00000000      0.00000000      0.00000000      0.00000000</v>
  </separator>
  <separator name="performance" >
   <i type="int" name="NPAR">     2</i>
   <i type="int" name="NSIM">     4</i>
   <i type="int" name="NBLK">    -1</i>
   <i type="logical" name="LPLANE"> T  </i>
   <i type="logical" name="LSCALAPACK"> T  </i>
   <i type="logical" name="LSCAAWARE"> F  </i>
   <i type="logical" name="LSCALU"> F  </i>
   <i type="logical" name="LASYNC"> F  </i>
   <i type="logical" name="LORBITALREAL"> F  </i>
  </separator>
  <separator name="miscellaneous" >
   <i type="int" name="IDIOT">     3</i>
   <i type="int" name="PHON_NSTRUCT">    -1</i>
   <i type="logical" name="LMUSIC"> F  </i>
   <v name="POMASS">      1.00000000</v>
   <v name="DARWINR">      0.00000000</v>
   <v name="DARWINV">      1.00000000</v>
   <i type="logical" name="LCORR"> T  </i>
  </separator>
  <i type="logical" name="GGA_COMPAT"> F  </i>
  <i type="logical" name="LBERRY"> F  </i>
  <i type="int" name="ICORELEVEL">     0</i>
  <i type="logical" name="LDAU"> F  </i>
  <i type="int" name="I_CONSTRAINED_M">     0</i>
  <separator name="electronic exchange-correlation" >
   <i type="string" name="GGA">--</i>
   <i type="int" name="VOSKOWN">     0</i>
   <i type="logical" name="LHFCALC"> F  </i>
   <i type="string" name="PRECFOCK"></i>
   <i type="logical" name="LSYMGRAD"> F  </i>
   <i type="logical" name="LHFONE"> F  </i>
   <i type="logical" name="LRHFCALC"> F  </i>
   <i type="logical" name="LTHOMAS"> F  </i>
   <i type="logical" name="LMODELHF"> F  </i>
   <i type="logical" name="LFOCKACE"> F  </i>
   <i name="ENCUT4O">     -1.00000000</i>
   <i type="int" name="EXXOEP">     0</i>
   <i type="int" name="FOURORBIT">     0</i>
   <i name="AEXX">      0.00000000</i>
   <i name="HFALPHA">      0.00000000</i>
   <i name="MCALPHA">      0.00000000</i>
   <i name="ALDAX">      1.00000000</i>
   <i name="AGGAX">      1.00000000</i>
   <i name="ALDAC">      1.00000000</i>
   <i name="AGGAC">      1.00000000</i>
   <i type="int" name="NKREDX">     1</i>
   <i type="int" name="NKREDY">     1</i>
   <i type="int" name="NKREDZ">     1</i>
   <i type="logical" name="SHIFTRED"> F  </i>
   <i type="logical" name="ODDONLY"> F  </i>
   <i type="logical" name="EVENONLY"> F  </i>
   <i type="int" name="LMAXFOCK">     0</i>
   <i type="int" name="NMAXFOCKAE">     0</i>
   <i type="logical" name="LFOCKAEDFT"> F  </i>
   <i name="HFSCREEN">      0.00000000</i>
   <i name="HFSCREENC">      0.00000000</i>
   <i type="int" name="NBANDSGWLOW">     0</i>
  </separator>
  <separator name="vdW DFT" >
   <i type="logical" name="LUSE_VDW"> F  </i>
   <i name="Zab_VDW">     -0.84910000</i>
   <i name="PARAM1">      0.12340000</i>
   <i name="PARAM2">      1.00000000</i>
   <i name="PARAM3">      0.00000000</i>
  </separator>
  <separator name="model GW" >
   <i type="int" name="MODEL_GW">     0</i>
   <i name="MODEL_EPS0">      0.00000000</i>
   <i name="MODEL_ALPHA">      1.00000000</i>
  </separator>
  <separator name="linear response parameters" >
   <i type="logical" name="LEPSILON"> F  </i>
   <i type="logical" name="LRPA"> F  </i>
   <i type="logical" name="LNABLA"> F  </i>
   <i type="logical" name="LVEL"> F  </i>
   <i type="int" name="KINTER">     0</i>
   <i name="CSHIFT">      0.10000000</i>
   <i name="OMEGAMAX">     -1.00000000</i>
   <i name="DEG_THRESHOLD">      0.00200000</i>
   <i name="RTIME">     -0.10000000</i>
   <i name="WPLASMAI">      0.00000000</i>
   <v name="DFIELD">      0.00000000      0.00000000      0.00000000</v>
   <v name="WPLASMA">      0.00000000      0.00000000      0.00000000      0.00000000      0.00000000      0.00000000      0.00000000      0.00000000      0.00000000</v>
  </separator>
  <separator name="orbital magnetization" >
   <i type="logical" name="NUCIND"> F  </i>
   <v name="MAGPOS">      0.00000000      0.00000000      0.00000000</v>
   <i type="logical" name="LNICSALL"> T  </i>
   <i type="logical" name="ORBITALMAG"> F  </i>
   <i type="logical" name="LMAGBLOCH"> F  </i>
   <i type="logical" name="LCHIMAG"> F  </i>
   <i type="logical" name="LGAUGE"> T  </i>
   <i type="int" name="MAGATOM">     0</i>
   <v name="MAGDIPOL">      0.00000000      0.00000000      0.00000000</v>
   <v name="AVECCONST">      0.00000000      0.00000000      0.00000000</v>
  </separator>
  <separator name="response functions" >
   <i type="logical" name="LFINITE_TEMPERATURE"> F  </i>
   <i type="logical" name="LADDER"> F  </i>
   <i type="logical" name="LRPAFORCE"> F  </i>
   <i type="logical" name="LFXC"> F  </i>
   <i type="logical" name="LHARTREE"> T  </i>
   <i type="int" name="IBSE">     0</i>
   <v type="int" name="KPOINT">    -1     0     0     0</v>
   <i type="logical" name="LTCTC"> F  </i>
   <i type="logical" name="LTCTE"> F  </i>
   <i type="logical" name="LTETE"> F  </i>
   <i type="logical" name="LTRIPLET"> F  </i>
   <i type="logical" name="LFXCEPS"> F  </i>
   <i type="logical" name="LFXHEG"> F  </i>
   <i type="int" name="NATURALO">     2</i>
   <i type="logical" name="LHOLEGF"> F  </i>
   <i type="logical" name="L2ORDER"> F  </i>
   <i type="logical" name="LDMP1"> F  </i>
   <i type="logical" name="LMP2LT"> F  </i>
   <i type="logical" name="LSMP2LT"> F  </i>
   <i type="logical" name="LGWLF"> F  </i>
   <i name="ENCUTGW">     -2.00000000</i>
   <i name="ENCUTGWSOFT">     -2.00000000</i>
   <i name="ENCUTLF">     -1.00000000</i>
   <i type="logical" name="LESF_SPLINES"> F  </i>
   <i type="int" name="LMAXMP2">    -1</i>
   <i name="SCISSOR">      0.00000000</i>
   <i type="int" name="NOMEGA">     0</i>
   <i type="int" name="NOMEGAR">     0</i>
   <i type="int" name="NBANDSGW">    -1</i>
   <i type="int" name="NBANDSO">    -1</i>
   <i type="int" name="NBANDSV">    -1</i>
   <i type="int" name="NELM">     1</i>
   <i type="int" name="NELMHF">     1</i>
   <i type="int" name="DIM">     3</i>
   <i type="int" name="IESPILON">     4</i>
   <i type="int" name="ANTIRES">     0</i>
   <i name="OMEGAMAX">    -30.00000000</i>
   <i name="OMEGAMIN">    -30.00000000</i>
   <i name="OMEGATL">   -200.00000000</i>
   <i type="int" name="OMEGAGRID">     0</i>
   <i name="CSHIFT">     -0.10000000</i>
   <i type="logical" name="LSELFENERGY"> F  </i>
   <i type="logical" name="LSPECTRAL"> F  </i>
   <i type="logical" name="LSPECTRALGW"> F  </i>
   <i type="logical" name="LSINGLES"> F  </i>
   <i type="logical" name="LFERMIGW"> F  </i>
   <i type="logical" name="ODDONLYGW"> F  </i>
   <i type="logical" name="EVENONLYGW"> F  </i>
   <i type="int" name="NKREDLFX">     1</i>
   <i type="int" name="NKREDLFY">     1</i>
   <i type="int" name="NKREDLFZ">     1</i>
   <i type="int" name="MAXMEM">  2800</i>
   <i type="int" name="TELESCOPE">     0</i>
   <i type="int" name="NTAUPAR">    -1</i>
   <i type="int" name="NOMEGAPAR">    -1</i>
   <i name="LAMBDA">      1.00000000</i>
  </separator>
  <separator name="External order field" >
   <i name="OFIELD_KAPPA">      0.00000000</i>
   <v name="OFIELD_K">      0.00000000      0.00000000      0.00000000</v>
   <i name="OFIELD_Q6_NEAR">      0.00000000</i>
   <i name="OFIELD_Q6_FAR">      0.00000000</i>
   <i name="OFIELD_A">      0.00000000</i>
  </separator>
 </parameters>
 <atominfo>
  <atoms>       2 </atoms>
  <types>       1 </types>
  <array name="atoms" >
   <dimension dim="1">ion</dimension>
   <field type="string">element</field>
   <field type="int">atomtype</field>
   <set>
    <rc><c>H </c><c>   1</c></rc>
    <rc><c>H </c><c>   1</c></rc>
   </set>
  </array>
  <array name="atomtypes" >
   <dimension dim="1">type</dimension>
   <field type="int">atomspertype</field>
   <field type="string">element</field>
   <field>mass</field>
   <field>valence</field>
   <field type="string">pseudopotential</field>
   <set>
    <rc><c>   2</c><c>H </c><c>      1.00000000</c><c>      1.00000000</c><c>  PAW_PBE H_GW 21Apr2008                </c></rc>
   </set>
  </array>
 </atominfo>
 <structure name="initialpos" >
  <crystal>
   <varray name="basis" >
    <v>       8.00000000       0.00000000       0.00000000 </v>
    <v>       0.00000000       8.00000000       0.00000000 </v>
    <v>       0.00000000       0.00000000       8.00000000 </v>
   </varray>
   <i name="volume">    512.00000000 </i>
   <varray name="rec_basis" >
    <v>       0.12500000       0.00000000       0.00000000 </v>
    <v>       0.00000000       0.12500000       0.00000000 </v>
    <v>       0.00000000       0.00000000       0.12500000 </v>
   </varray>
  </crystal>
  <varray name="positions" >
   <v>       0.50000000       0.50000000       0.50000000 </v>
   <v>       0.50000000       0.50000000       0.62500000 </v>
  </varray>
  <varray name="velocities" >
   <v>       0.00000000       0.00000000       0.00000000 </v>
   <v>       0.00000000       0.00000000       0.00000000 </v>
  </varray>
 </structure>
 <calculation>
  <scstep>
   <time name="dav">    0.01    0.01</time>
   <time name="total">    0.08    0.08</time>
   <energy>
    <i name="alphaZ">      0.01906012 </i>
    <i name="ewald">      4.24594128 </i>
    <i name="hartreedc">    -27.15486642 </i>
    <i name="XCdc">      5.52241284 </i>
    <i name="pawpsdc">     -0.00000017 </i>
    <i name="pawaedc">      0.00000017 </i>
    <i name="eentropy">     -0.00000000 </i>
    <i name="bandstr">    -35.44192658 </i>
    <i name="atom">     24.91341410 </i>
    <i name="e_fr_energy">    -27.89596466 </i>
    <i name="e_wo_entrp">    -27.89596466 </i>
    <i name="e_0_energy">    -27.89596466 </i>
   </energy>
  </scstep>
  <scstep>
   <time name="dav">    0.02    0.02</time>
   <time name="total">    0.08    0.08</time>
   <energy>
    <i name="e_fr_energy">    -32.07587059 </i>
    <i name="e_wo_entrp">    -32.07587059 </i>
    <i name="e_0_energy">    -32.07587059 </i>
   </energy>
  </scstep>
  <scstep>
   <time name="dav">    0.01    0.01</time>
   <time name="total">    0.07    0.07</time>
   <energy>
    <i name="e_fr_energy">    -18.69913778 </i>
    <i name="e_wo_entrp">    -18.69913778 </i>
    <i name="e_0_energy">    -18.69913778 </i>
   </energy>
  </scstep>
  <scstep>
   <time name="dav">    0.01    0.01</time>
   <time name="total">    0.07    0.07</time>
   <energy>
    <i name="e_fr_energy">     -6.85841041 </i>
    <i name="e_wo_entrp">     -6.85841041 </i>
    <i name="e_0_energy">     -6.85841041 </i>
   </energy>
  </scstep>
  <scstep>
   <time name="dav">    0.01    0.01</time>
   <time name="total">    0.07    0.07</time>
   <energy>
    <i name="e_fr_energy">     -5.98389471 </i>
    <i name="e_wo_entrp">     -5.98389471 </i>
    <i name="e_0_energy">     -5.98389471 </i>
   </energy>
  </scstep>
  <scstep>
   <time name="dav">    0.02    0.02</time>
   <time name="total">    0.08    0.08</time>
   <energy>
    <i name="e_fr_energy">     -6.02495682 </i>
    <i name="e_wo_entrp">     -6.02495682 </i>
    <i name="e_0_energy">     -6.02495682 </i>
   </energy>
  </scstep>
  <scstep>
   <time name="dav">    0.02    0.02</time>
   <time name="total">    0.08    0.08</time>
   <energy>
    <i name="e_fr_energy">     -6.07969537 </i>
    <i name="e_wo_entrp">     -6.07969537 </i>
    <i name="e_0_energy">     -6.07969537 </i>
   </energy>
  </scstep>
  <scstep>
   <time name="dav">    0.01    0.01</time>
   <time name="total">    0.07    0.07</time>
   <energy>
    <i name="e_fr_energy">     -6.08766724 </i>
    <i name="e_wo_entrp">     -6.08766724 </i>
    <i name="e_0_energy">     -6.08766724 </i>
   </energy>
  </scstep>
  <scstep>
   <time name="dav">    0.02    0.02</time>
   <time name="total">    0.08    0.08</time>
   <energy>
    <i name="e_fr_energy">     -6.09222719 </i>
    <i name="e_wo_entrp">     -6.09222719 </i>
    <i name="e_0_energy">     -6.09222719 </i>
   </energy>
  </scstep>
  <scstep>
   <time name="dav">    0.01    0.01</time>
   <time name="total">    0.07    0.07</time>
   <energy>
    <i name="e_fr_energy">     -6.09421322 </i>
    <i name="e_wo_entrp">     -6.09421322 </i>
    <i name="e_0_energy">     -6.09421322 </i>
   </energy>
  </scstep>
  <scstep>
   <time name="dav">    0.01    0.01</time>
   <time name="total">    0.07    0.08</time>
   <energy>
    <i name="e_fr_energy">     -6.09434645 </i>
    <i name="e_wo_entrp">     -6.09434645 </i>
    <i name="e_0_energy">     -6.09434645 </i>
   </energy>
  </scstep>
  <scstep>
   <time name="dav">    0.01    0.01</time>
   <time name="total">    0.07    0.08</time>
   <energy>
    <i name="e_fr_energy">     -6.09447573 </i>
    <i name="e_wo_entrp">     -6.09447573 </i>
    <i name="e_0_energy">     -6.09447573 </i>
   </energy>
  </scstep>
  <scstep>
   <time name="dav">    0.01    0.01</time>
   <time name="total">    0.07    0.08</time>
   <energy>
    <i name="e_fr_energy">     -6.09448788 </i>
    <i name="e_wo_entrp">     -6.09448788 </i>
    <i name="e_0_energy">     -6.09448788 </i>
   </energy>
  </scstep>
  <scstep>
   <time name="dav">    0.01    0.01</time>
   <time name="total">    0.07    0.07</time>
   <energy>
    <i name="alphaZ">      0.01906012 </i>
    <i name="ewald">      4.24594128 </i>
    <i name="hartreedc">    -21.51689560 </i>
    <i name="XCdc">      4.78330918 </i>
    <i name="pawpsdc">     15.42513978 </i>
    <i name="pawaedc">    -15.45519144 </i>
    <i name="eentropy">     -0.00000000 </i>
    <i name="bandstr">    -18.50927419 </i>
    <i name="atom">     24.91341410 </i>
    <i name="e_fr_energy">     -6.09449678 </i>
    <i name="e_wo_entrp">     -6.09449678 </i>
    <i name="e_0_energy">     -6.09449678 </i>
   </energy>
  </scstep>
  <structure>
   <crystal>
    <varray name="basis" >
     <v>       8.00000000       0.00000000       0.00000000 </v>
     <v>       0.00000000       8.00000000       0.00000000 </v>
     <v>       0.00000000       0.00000000       8.00000000 </v>
    </varray>
    <i name="volume">    512.00000000 </i>
    <varray name="rec_basis" >
     <v>       0.12500000       0.00000000       0.00000000 </v>
     <v>       0.00000000       0.12500000       0.00000000 </v>
     <v>       0.00000000       0.00000000       0.12500000 </v>
    </varray>
   </crystal>
   <varray name="positions" >
    <v>       0.50000000       0.50000000       0.50000000 </v>
    <v>       0.50000000       0.50000000       0.62500000 </v>
   </varray>
  </structure>
  <varray name="forces" >
   <v>       0.00000000       0.00000000       4.16932499 </v>
   <v>       0.00000000       0.00000000      -4.16932499 </v>
  </varray>
  <varray name="stress" >
   <v>      -0.68104152      -0.00000000       0.00000000 </v>
   <v>       0.00000000      -0.68104058       0.00000000 </v>
   <v>       0.00000000       0.00000000     -13.57069983 </v>
  </varray>
  <energy>
   <i name="e_fr_energy">     -6.09449678 </i>
   <i name="e_wo_entrp">     -6.09449678 </i>
   <i name="e_0_energy">     -6.09449678 </i>
   <i name="kinetic">      0.04193076 </i>
   <i name="lattice kinetic">      0.00000000 </i>
   <i name="nosepot">      0.00000000 </i>
   <i name="nosekinetic">      0.00000000 </i>
   <i name="total">     -6.05256602 </i>
  </energy>
  <time name="totalsc">    1.51    1.59</time>
 </calculation>
 <calculation>
  <scstep>
   <time name="dav">    0.01    0.01</time>
   <time name="total">    0.08    0.08</time>
   <energy>
    <i name="alphaZ">      0.01906012 </i>
    <i name="ewald">      5.49636562 </i>
    <i name="hartreedc">    -22.14813907 </i>
    <i name="XCdc">      4.85837384 </i>
    <i name="pawpsdc">     15.42672203 </i>
    <i name="pawaedc">    -15.45678350 </i>
    <i name="eentropy">     -0.00000000 </i>
    <i name="bandstr">    -19.51489995 </i>
    <i name="atom">     24.91341410 </i>
    <i name="e_fr_energy">     -6.40588680 </i>
    <i name="e_wo_entrp">     -6.40588680 </i>
    <i name="e_0_energy">     -6.40588680 </i>
   </energy>
  </scstep>
  <scstep>
   <time name="dav">    0.02    0.02</time>
   <time name="total">    0.08    0.08</time>
   <energy>
    <i name="e_fr_energy">     -6.40365444 </i>
    <i name="e_wo_entrp">     -6.40365444 </i>
    <i name="e_0_energy">     -6.40365444 </i>
   </energy>
  </scstep>
  <scstep>
   <time name="dav">    0.01    0.01</time>
   <time name="total">    0.08    0.08</time>
   <energy>
    <i name="e_fr_energy">     -6.40258868 </i>
    <i name="e_wo_entrp">     -6.40258868 </i>
    <i name="e_0_energy">     -6.40258868 </i>
   </energy>
  </scstep>
  <scstep>
   <time name="dav">    0.01    0.01</time>
   <time name="total">    0.08    0.08</time>
   <energy>
    <i name="e_fr_energy">     -6.40262037 </i>
    <i name="e_wo_entrp">     -6.40262037 </i>
    <i name="e_0_energy">     -6.40262037 </i>
   </energy>
  </scstep>
  <scstep>
   <time name="dav">    0.01    0.01</time>
   <time name="total">    0.08    0.08</time>
   <energy>
    <i name="e_fr_energy">     -6.40267144 </i>
    <i name="e_wo_entrp">     -6.40267144 </i>
    <i name="e_0_energy">     -6.40267144 </i>
   </energy>
  </scstep>
  <scstep>
   <time name="dav">    0.02    0.02</time>
   <time name="total">    0.08    0.08</time>
   <energy>
    <i name="e_fr_energy">     -6.40271834 </i>
    <i name="e_wo_entrp">     -6.40271834 </i>
    <i name="e_0_energy">     -6.40271834 </i>
   </energy>
  </scstep>
  <scstep>
   <time name="dav">    0.01    0.01</time>
   <time name="total">    0.08    0.08</time>
   <energy>
    <i name="e_fr_energy">     -6.40274458 </i>
    <i name="e_wo_entrp">     -6.40274458 </i>
    <i name="e_0_energy">     -6.40274458 </i>
   </energy>
  </scstep>
  <scstep>
   <time name="dav">    0.01    0.01</time>
   <time name="total">    0.08    0.08</time>
   <energy>
    <i name="e_fr_energy">     -6.40276310 </i>
    <i name="e_wo_entrp">     -6.40276310 </i>
    <i name="e_0_energy">     -6.40276310 </i>
   </energy>
  </scstep>
  <scstep>
   <time name="dav">    0.01    0.01</time>
   <time name="total">    0.07    0.07</time>
   <energy>
    <i name="alphaZ">      0.01906012 </i>
    <i name="ewald">      5.49636562 </i>
    <i name="hartreedc">    -22.64612751 </i>
    <i name="XCdc">      4.92921257 </i>
    <i name="pawpsdc">     18.71678657 </i>
    <i name="pawaedc">    -18.75135736 </i>
    <i name="eentropy">     -0.00000000 </i>
    <i name="bandstr">    -19.08011887 </i>
    <i name="atom">     24.91341410 </i>
    <i name="e_fr_energy">     -6.40276476 </i>
    <i name="e_wo_entrp">     -6.40276476 </i>
    <i name="e_0_energy">     -6.40276476 </i>
   </energy>
  </scstep>
  <structure>
   <crystal>
    <varray name="basis" >
     <v>       8.00000000       0.00000000       0.00000000 </v>
     <v>       0.00000000       8.00000000       0.00000000 </v>
     <v>       0.00000000       0.00000000       8.00000000 </v>
    </varray>
    <i name="volume">    512.00000000 </i>
    <varray name="rec_basis" >
     <v>       0.12500000       0.00000000       0.00000000 </v>
     <v>       0.00000000       0.12500000       0.00000000 </v>
     <v>       0.00000000       0.00000000       0.12500000 </v>
    </varray>
   </crystal>
   <varray name="positions" >
    <v>       0.50000000       0.50000000       0.50502848 </v>
    <v>       0.50000000       0.50000000       0.61997152 </v>
   </varray>
  </structure>
  <varray name="forces" >
   <v>      -0.00000000       0.00000000       3.42191657 </v>
   <v>      -0.00000000       0.00000000      -3.42191657 </v>
  </varray>
  <varray name="stress" >
   <v>      -0.73446093      -0.00000000      -0.00000000 </v>
   <v>      -0.00000000      -0.73446053      -0.00000000 </v>
   <v>       0.00000000       0.00000000     -10.55675462 </v>
  </varray>
  <energy>
   <i name="e_fr_energy">     -6.40276476 </i>
   <i name="e_wo_entrp">     -6.40276476 </i>
   <i name="e_0_energy">     -6.40276476 </i>
   <i name="kinetic">      0.33362431 </i>
   <i name="lattice kinetic">      0.00000000 </i>
   <i name="nosepot">      0.00000000 </i>
   <i name="nosekinetic">      0.00000000 </i>
   <i name="total">     -6.06914045 </i>
  </energy>
  <time name="totalsc">    0.81    0.82</time>
 </calculation>
 <calculation>
  <scstep>
   <time name="dav">    0.01    0.01</time>
   <time name="total">    0.08    0.08</time>
   <energy>
    <i name="alphaZ">      0.01906012 </i>
    <i name="ewald">      8.44867413 </i>
    <i name="hartreedc">    -24.80949255 </i>
    <i name="XCdc">      5.21325721 </i>
    <i name="pawpsdc">     25.53790468 </i>
    <i name="pawaedc">    -25.58153670 </i>
    <i name="eentropy">     -0.00000000 </i>
    <i name="bandstr">    -20.46610707 </i>
    <i name="atom">     24.91341410 </i>
    <i name="e_fr_energy">     -6.72482607 </i>
    <i name="e_wo_entrp">     -6.72482607 </i>
    <i name="e_0_energy">     -6.72482607 </i>
   </energy>
  </scstep>
  <scstep>
   <time name="dav">    0.01    0.01</time>
   <time name="total">    0.08    0.08</time>
   <energy>
    <i name="e_fr_energy">     -6.72474124 </i>
    <i name="e_wo_entrp">     -6.72474124 </i>
    <i name="e_0_energy">     -6.72474124 </i>
   </energy>
  </scstep>
  <scstep>
   <time name="dav">    0.01    0.01</time>
   <time name="total">    0.08    0.08</time>
   <energy>
    <i name="e_fr_energy">     -6.72471610 </i>
    <i name="e_wo_entrp">     -6.72471610 </i>
    <i name="e_0_energy">     -6.72471610 </i>
   </energy>
  </scstep>
  <scstep>
   <time name="dav">    0.01    0.01</time>
   <time name="total">    0.07    0.07</time>
   <energy>
    <i name="alphaZ">      0.01906012 </i>
    <i name="ewald">      8.44867413 </i>
    <i name="hartreedc">    -24.99886775 </i>
    <i name="XCdc">      5.23815703 </i>
    <i name="pawpsdc">     28.34455752 </i>
    <i name="pawaedc">    -28.39183039 </i>
    <i name="eentropy">     -0.00000000 </i>
    <i name="bandstr">    -20.29788668 </i>
    <i name="atom">     24.91341410 </i>
    <i name="e_fr_energy">     -6.72472192 </i>
    <i name="e_wo_entrp">     -6.72472192 </i>
    <i name="e_0_energy">     -6.72472192 </i>
   </energy>
  </scstep>
  <structure>
   <crystal>
    <varray name="basis" >
     <v>       8.00000000       0.00000000       0.00000000 </v>
     <v>       0.00000000       8.00000000       0.00000000 </v>
     <v>       0.00000000       0.00000000       8.00000000 </v>
    </varray>
    <i name="volume">    512.00000000 </i>
    <varray name="rec_basis" >
     <v>       0.12500000       0.00000000       0.00000000 </v>
     <v>       0.00000000       0.12500000       0.00000000 </v>
     <v>       0.00000000       0.00000000       0.12500000 </v>
    </varray>
   </crystal>
   <varray name="positions" >
    <v>       0.50000000       0.50000000       0.51418402 </v>
    <v>       0.50000000       0.50000000       0.61081598 </v>
   </varray>
  </structure>
  <varray name="forces" >
   <v>      -0.00000000      -0.00000000       0.56282556 </v>
   <v>       0.00000000       0.00000000      -0.56282556 </v>
  </varray>
  <varray name="stress" >
   <v>      -0.84081917      -0.00000000      -0.00000000 </v>
   <v>      -0.00000000      -0.84081427      -0.00000000 </v>
   <v>       0.00000000       0.00000000      -2.43816651 </v>
  </varray>
  <energy>
   <i name="e_fr_energy">     -6.72472192 </i>
   <i name="e_wo_entrp">     -6.72472192 </i>
   <i name="e_0_energy">     -6.72472192 </i>
   <i name="kinetic">      0.59800327 </i>
   <i name="lattice kinetic">      0.00000000 </i>
   <i name="nosepot">      0.00000000 </i>
   <i name="nosekinetic">      0.00000000 </i>
   <i name="total">     -6.12671865 </i>
  </energy>
  <time name="totalsc">    0.41    0.42</time>
 </calculation>
 <calculation>
  <scstep>
   <time name="dav">    0.01    0.01</time>
   <time name="total">    0.07    0.07</time>
   <energy>
    <i name="alphaZ">      0.01906012 </i>
    <i name="ewald">     13.19584333 </i>
    <i name="hartreedc">    -37.79762442 </i>
    <i name="XCdc">      7.12582881 </i>
    <i name="pawpsdc">    147.34104307 </i>
    <i name="pawaedc">   -147.52941929 </i>
    <i name="eentropy">     -0.00000000 </i>
    <i name="bandstr">    -14.07748854 </i>
    <i name="atom">     24.91341410 </i>
    <i name="e_fr_energy">     -6.80934281 </i>
    <i name="e_wo_entrp">     -6.80934281 </i>
    <i name="e_0_energy">     -6.80934281 </i>
   </energy>
  </scstep>
  <scstep>
   <time name="dav">    0.01    0.01</time>
   <time name="total">    0.07    0.07</time>
   <energy>
    <i name="e_fr_energy">     -6.47911407 </i>
    <i name="e_wo_entrp">     -6.47911407 </i>
    <i name="e_0_energy">     -6.47911407 </i>
   </energy>
  </scstep>
  <scstep>
   <time name="dav">    0.02    0.02</time>
   <time name="total">    0.07    0.07</time>
   <energy>
    <i name="e_fr_energy">     -6.28719588 </i>
    <i name="e_wo_entrp">     -6.28719588 </i>
    <i name="e_0_energy">     -6.28719588 </i>
   </energy>
  </scstep>
  <scstep>
   <time name="dav">    0.01    0.01</time>
   <time name="total">    0.07    0.07</time>
   <energy>
    <i name="e_fr_energy">     -6.29173138 </i>
    <i name="e_wo_entrp">     -6.29173138 </i>
    <i name="e_0_energy">     -6.29173138 </i>
   </energy>
  </scstep>
  <scstep>
   <time name="dav">    0.01    0.01</time>
   <time name="total">    0.07    0.07</time>
   <energy>
    <i name="e_fr_energy">     -6.29473153 </i>
    <i name="e_wo_entrp">     -6.29473153 </i>
    <i name="e_0_energy">     -6.29473153 </i>
   </energy>
  </scstep>
  <scstep>
   <time name="dav">    0.02    0.02</time>
   <time name="total">    0.08    0.08</time>
   <energy>
    <i name="e_fr_energy">     -6.29565976 </i>
    <i name="e_wo_entrp">     -6.29565976 </i>
    <i name="e_0_energy">     -6.29565976 </i>
   </energy>
  </scstep>
  <scstep>
   <time name="dav">    0.02    0.02</time>
   <time name="total">    0.08    0.08</time>
   <energy>
    <i name="e_fr_energy">     -6.29599291 </i>
    <i name="e_wo_entrp">     -6.29599291 </i>
    <i name="e_0_energy">     -6.29599291 </i>
   </energy>
  </scstep>
  <scstep>
   <time name="dav">    0.01    0.01</time>
   <time name="total">    0.07    0.08</time>
   <energy>
    <i name="e_fr_energy">     -6.29618695 </i>
    <i name="e_wo_entrp">     -6.29618695 </i>
    <i name="e_0_energy">     -6.29618695 </i>
   </energy>
  </scstep>
  <scstep>
   <time name="dav">    0.01    0.01</time>
   <time name="total">    0.07    0.08</time>
   <energy>
    <i name="e_fr_energy">     -6.29624141 </i>
    <i name="e_wo_entrp">     -6.29624141 </i>
    <i name="e_0_energy">     -6.29624141 </i>
   </energy>
  </scstep>
  <scstep>
   <time name="dav">    0.01    0.01</time>
   <time name="total">    0.08    0.08</time>
   <energy>
    <i name="e_fr_energy">     -6.29626063 </i>
    <i name="e_wo_entrp">     -6.29626063 </i>
    <i name="e_0_energy">     -6.29626063 </i>
   </energy>
  </scstep>
  <scstep>
   <time name="dav">    0.02    0.02</time>
   <time name="total">    0.07    0.07</time>
   <energy>
    <i name="alphaZ">      0.01906012 </i>
    <i name="ewald">     13.19584333 </i>
    <i name="hartreedc">    -28.04639911 </i>
    <i name="XCdc">      5.64451585 </i>
    <i name="pawpsdc">     43.54958974 </i>
    <i name="pawaedc">    -43.62496428 </i>
    <i name="eentropy">     -0.00000000 </i>
    <i name="bandstr">    -21.94732654 </i>
    <i name="atom">     24.91341410 </i>
    <i name="e_fr_energy">     -6.29626680 </i>
    <i name="e_wo_entrp">     -6.29626680 </i>
    <i name="e_0_energy">     -6.29626680 </i>
   </energy>
  </scstep>
  <structure>
   <crystal>
    <varray name="basis" >
     <v>       8.00000000       0.00000000       0.00000000 </v>
     <v>       0.00000000       8.00000000       0.00000000 </v>
     <v>       0.00000000       0.00000000       8.00000000 </v>
    </varray>
    <i name="volume">    512.00000000 </i>
    <varray name="rec_basis" >
     <v>       0.12500000       0.00000000       0.00000000 </v>
     <v>       0.00000000       0.12500000       0.00000000 </v>
     <v>       0.00000000       0.00000000       0.12500000 </v>
    </varray>
   </crystal>
   <varray name="positions" >
    <v>       0.50000000       0.50000000       0.52401837 </v>
    <v>       0.50000000       0.50000000       0.60098163 </v>
   </varray>
  </structure>
  <varray name="forces" >
   <v>       0.00000000       0.00000000      -7.37220927 </v>
   <v>       0.00000000      -0.00000000       7.37220927 </v>
  </varray>
  <varray name="stress" >
   <v>      -1.01061457       0.00000000       0.00000000 </v>
   <v>      -0.00000000      -1.01061420      -0.00000000 </v>
   <v>       0.00000000      -0.00000000      13.38821188 </v>
  </varray>
  <energy>
   <i name="e_fr_energy">     -6.29626680 </i>
   <i name="e_wo_entrp">     -6.29626680 </i>
   <i name="e_0_energy">     -6.29626680 </i>
   <i name="kinetic">      0.19261062 </i>
   <i name="lattice kinetic">      0.00000000 </i>
   <i name="nosepot">      0.00000000 </i>
   <i name="nosekinetic">      0.00000000 </i>
   <i name="total">     -6.10365619 </i>
  </energy>
  <time name="totalsc">    0.92    0.92</time>
 </calculation>
 <calculation>
  <scstep>
   <time name="dav">    0.01    0.01</time>
   <time name="total">    0.08    0.08</time>
   <energy>
    <i name="alphaZ">      0.01906012 </i>
    <i name="ewald">     13.78223704 </i>
    <i name="hartreedc">    -28.26712148 </i>
    <i name="XCdc">      5.67389915 </i>
    <i name="pawpsdc">     44.42028176 </i>
    <i name="pawaedc">    -44.49723914 </i>
    <i name="eentropy">     -0.00000000 </i>
    <i name="bandstr">    -22.22000160 </i>
    <i name="atom">     24.91341410 </i>
    <i name="e_fr_energy">     -6.17547005 </i>
    <i name="e_wo_entrp">     -6.17547005 </i>
    <i name="e_0_energy">     -6.17547005 </i>
   </energy>
  </scstep>
  <scstep>
   <time name="dav">    0.01    0.01</time>
   <time name="total">    0.08    0.08</time>
   <energy>
    <i name="e_fr_energy">     -6.17533268 </i>
    <i name="e_wo_entrp">     -6.17533268 </i>
    <i name="e_0_energy">     -6.17533268 </i>
   </energy>
  </scstep>
  <scstep>
   <time name="dav">    0.01    0.01</time>
   <time name="total">    0.08    0.08</time>
   <energy>
    <i name="e_fr_energy">     -6.17529153 </i>
    <i name="e_wo_entrp">     -6.17529153 </i>
    <i name="e_0_energy">     -6.17529153 </i>
   </energy>
  </scstep>
  <scstep>
   <time name="dav">    0.02    0.02</time>
   <time name="total">    0.08    0.08</time>
   <energy>
    <i name="alphaZ">      0.01906012 </i>
    <i name="ewald">     13.78223704 </i>
    <i name="hartreedc">    -28.37020495 </i>
    <i name="XCdc">      5.68816052 </i>
    <i name="pawpsdc">     44.90159166 </i>
    <i name="pawaedc">    -44.98104806 </i>
    <i name="eentropy">     -0.00000000 </i>
    <i name="bandstr">    -22.12850378 </i>
    <i name="atom">     24.91341410 </i>
    <i name="e_fr_energy">     -6.17529336 </i>
    <i name="e_wo_entrp">     -6.17529336 </i>
    <i name="e_0_energy">     -6.17529336 </i>
   </energy>
  </scstep>
  <structure>
   <crystal>
    <varray name="basis" >
     <v>       8.00000000       0.00000000       0.00000000 </v>
     <v>       0.00000000       8.00000000       0.00000000 </v>
     <v>       0.00000000       0.00000000       8.00000000 </v>
    </varray>
    <i name="volume">    512.00000000 </i>
    <varray name="rec_basis" >
     <v>       0.12500000       0.00000000       0.00000000 </v>
     <v>       0.00000000       0.12500000       0.00000000 </v>
     <v>       0.00000000       0.00000000       0.12500000 </v>
    </varray>
   </crystal>
   <varray name="positions" >
    <v>       0.50000000       0.50000000       0.52496134 </v>
    <v>       0.50000000       0.50000000       0.60003866 </v>
   </varray>
  </structure>
  <varray name="forces" >
   <v>       0.00000000       0.00000000      -8.68748313 </v>
   <v>      -0.00000000      -0.00000000       8.68748313 </v>
  </varray>
  <varray name="stress" >
   <v>      -1.03971764      -0.00000000      -0.00000000 </v>
   <v>      -0.00000000      -1.03971764      -0.00000000 </v>
   <v>      -0.00000000      -0.00000000      15.57267252 </v>
  </varray>
  <energy>
   <i name="e_fr_energy">     -6.17529336 </i>
   <i name="e_wo_entrp">     -6.17529336 </i>
   <i name="e_0_energy">     -6.17529336 </i>
   <i name="kinetic">      0.12241106 </i>
   <i name="lattice kinetic">      0.00000000 </i>
   <i name="nosepot">      0.00000000 </i>
   <i name="nosekinetic">      0.00000000 </i>
   <i name="total">     -6.05288229 </i>
  </energy>
  <time name="totalsc">    0.42    0.43</time>
 </calculation>
 <calculation>
  <scstep>
   <time name="dav">    0.01    0.01</time>
   <time name="total">    0.08    0.08</time>
   <energy>
    <i name="alphaZ">      0.01906012 </i>
    <i name="ewald">      8.93854357 </i>
    <i name="hartreedc">    -25.38982086 </i>
    <i name="XCdc">      5.28965999 </i>
    <i name="pawpsdc">     30.10954816 </i>
    <i name="pawaedc">    -30.16081564 </i>
    <i name="eentropy">     -0.00000000 </i>
    <i name="bandstr">    -20.44956693 </i>
    <i name="atom">     24.91341410 </i>
    <i name="e_fr_energy">     -6.72997748 </i>
    <i name="e_wo_entrp">     -6.72997748 </i>
    <i name="e_0_energy">     -6.72997748 </i>
   </energy>
  </scstep>
  <scstep>
   <time name="dav">    0.01    0.01</time>
   <time name="total">    0.07    0.07</time>
   <energy>
    <i name="alphaZ">      0.01906012 </i>
    <i name="ewald">      8.93854357 </i>
    <i name="hartreedc">    -25.36833905 </i>
    <i name="XCdc">      5.28673115 </i>
    <i name="pawpsdc">     30.09832797 </i>
    <i name="pawaedc">    -30.14895189 </i>
    <i name="eentropy">     -0.00000000 </i>
    <i name="bandstr">    -20.46875628 </i>
    <i name="atom">     24.91341410 </i>
    <i name="e_fr_energy">     -6.72997032 </i>
    <i name="e_wo_entrp">     -6.72997032 </i>
    <i name="e_0_energy">     -6.72997032 </i>
   </energy>
  </scstep>
  <structure>
   <crystal>
    <varray name="basis" >
     <v>       8.00000000       0.00000000       0.00000000 </v>
     <v>       0.00000000       8.00000000       0.00000000 </v>
     <v>       0.00000000       0.00000000       8.00000000 </v>
    </varray>
    <i name="volume">    512.00000000 </i>
    <varray name="rec_basis" >
     <v>       0.12500000       0.00000000       0.00000000 </v>
     <v>       0.00000000       0.12500000       0.00000000 </v>
     <v>       0.00000000       0.00000000       0.12500000 </v>
    </varray>
   </crystal>
   <varray name="positions" >
    <v>       0.50000000       0.50000000       0.51542663 </v>
    <v>       0.50000000       0.50000000       0.60957337 </v>
   </varray>
  </structure>
  <varray name="forces" >
   <v>      -0.00000000      -0.00000000      -0.05685799 </v>
   <v>       0.00000000       0.00000000       0.05685799 </v>
  </varray>
  <varray name="stress" >
   <v>      -0.88826858      -0.00000000      -0.00000000 </v>
   <v>      -0.00000000      -0.88828480       0.00000000 </v>
   <v>      -0.00000000       0.00000000      -0.98249631 </v>
  </varray>
  <energy>
   <i name="e_fr_energy">     -6.72997032 </i>
   <i name="e_wo_entrp">     -6.72997032 </i>
   <i name="e_0_energy">     -6.72997032 </i>
   <i name="kinetic">      0.60736746 </i>
   <i name="lattice kinetic">      0.00000000 </i>
   <i name="nosepot">      0.00000000 </i>
   <i name="nosekinetic">      0.00000000 </i>
   <i name="total">     -6.12260285 </i>
  </energy>
  <time name="totalsc">    0.26    0.27</time>
 </calculation>
 <calculation>
  <scstep>
   <time name="dav">    0.01    0.01</time>
   <time name="total">    0.08    0.08</time>
   <energy>
    <i name="alphaZ">      0.01906012 </i>
    <i name="ewald">      5.71456540 </i>
    <i name="hartreedc">    -24.13727975 </i>
    <i name="XCdc">      5.13316258 </i>
    <i name="pawpsdc">     19.51444031 </i>
    <i name="pawaedc">    -19.59119159 </i>
    <i name="eentropy">     -0.00000000 </i>
    <i name="bandstr">    -18.04391428 </i>
    <i name="atom">     24.91341410 </i>
    <i name="e_fr_energy">     -6.47774311 </i>
    <i name="e_wo_entrp">     -6.47774311 </i>
    <i name="e_0_energy">     -6.47774311 </i>
   </energy>
  </scstep>
  <scstep>
   <time name="dav">    0.02    0.02</time>
   <time name="total">    0.08    0.08</time>
   <energy>
    <i name="e_fr_energy">     -6.45027780 </i>
    <i name="e_wo_entrp">     -6.45027780 </i>
    <i name="e_0_energy">     -6.45027780 </i>
   </energy>
  </scstep>
  <scstep>
   <time name="dav">    0.02    0.02</time>
   <time name="total">    0.08    0.08</time>
   <energy>
    <i name="e_fr_energy">     -6.44460166 </i>
    <i name="e_wo_entrp">     -6.44460166 </i>
    <i name="e_0_energy">     -6.44460166 </i>
   </energy>
  </scstep>
  <scstep>
   <time name="dav">    0.01    0.01</time>
   <time name="total">    0.07    0.07</time>
   <energy>
    <i name="e_fr_energy">     -6.44512563 </i>
    <i name="e_wo_entrp">     -6.44512563 </i>
    <i name="e_0_energy">     -6.44512563 </i>
   </energy>
  </scstep>
  <scstep>
   <time name="dav">    0.01    0.01</time>
   <time name="total">    0.07    0.08</time>
   <energy>
    <i name="e_fr_energy">     -6.44521767 </i>
    <i name="e_wo_entrp">     -6.44521767 </i>
    <i name="e_0_energy">     -6.44521767 </i>
   </energy>
  </scstep>
  <scstep>
   <time name="dav">    0.01    0.01</time>
   <time name="total">    0.07    0.07</time>
   <energy>
    <i name="e_fr_energy">     -6.44526273 </i>
    <i name="e_wo_entrp">     -6.44526273 </i>
    <i name="e_0_energy">     -6.44526273 </i>
   </energy>
  </scstep>
  <scstep>
   <time name="dav">    0.02    0.02</time>
   <time name="total">    0.07    0.07</time>
   <energy>
    <i name="alphaZ">      0.01906012 </i>
    <i name="ewald">      5.71456540 </i>
    <i name="hartreedc">    -22.83640933 </i>
    <i name="XCdc">      4.95394321 </i>
    <i name="pawpsdc">     19.34380168 </i>
    <i name="pawaedc">    -19.37921829 </i>
    <i name="eentropy">     -0.00000000 </i>
    <i name="bandstr">    -19.17442564 </i>
    <i name="atom">     24.91341410 </i>
    <i name="e_fr_energy">     -6.44526874 </i>
    <i name="e_wo_entrp">     -6.44526874 </i>
    <i name="e_0_energy">     -6.44526874 </i>
   </energy>
  </scstep>
  <structure>
   <crystal>
    <varray name="basis" >
     <v>       8.00000000       0.00000000       0.00000000 </v>
     <v>       0.00000000       8.00000000       0.00000000 </v>
     <v>       0.00000000       0.00000000       8.00000000 </v>
    </varray>
    <i name="volume">    512.00000000 </i>
    <varray name="rec_basis" >
     <v>       0.12500000       0.00000000       0.00000000 </v>
     <v>       0.00000000       0.12500000       0.00000000 </v>
     <v>       0.00000000       0.00000000       0.12500000 </v>
    </varray>
   </crystal>
   <varray name="positions" >
    <v>       0.50000000       0.50000000       0.50582335 </v>
    <v>       0.50000000       0.50000000       0.61917665 </v>
   </varray>
  </structure>
  <varray name="forces" >
   <v>      -0.00000000      -0.00000000       3.26083939 </v>
   <v>       0.00000000       0.00000000      -3.26083939 </v>
  </varray>
  <varray name="stress" >
   <v>      -0.74501213      -0.00000000       0.00000000 </v>
   <v>       0.00000000      -0.74501277      -0.00000000 </v>
   <v>      -0.00000000       0.00000000     -10.00296306 </v>
  </varray>
  <energy>
   <i name="e_fr_energy">     -6.44526874 </i>
   <i name="e_wo_entrp">     -6.44526874 </i>
   <i name="e_0_energy">     -6.44526874 </i>
   <i name="kinetic">      0.38685813 </i>
   <i name="lattice kinetic">      0.00000000 </i>
   <i name="nosepot">      0.00000000 </i>
   <i name="nosekinetic">      0.00000000 </i>
   <i name="total">     -6.05841062 </i>
  </energy>
  <time name="totalsc">    0.64    0.65</time>
 </calculation>
 <calculation>
  <scstep>
   <time name="dav">    0.01    0.01</time>
   <time name="total">    0.08    0.08</time>
   <energy>
    <i name="alphaZ">      0.01906012 </i>
    <i name="ewald">      4.28094391 </i>
    <i name="hartreedc">    -22.02193819 </i>
    <i name="XCdc">      4.85674634 </i>
    <i name="pawpsdc">     18.95234881 </i>
    <i name="pawaedc">    -18.98505678 </i>
    <i name="eentropy">     -0.00000000 </i>
    <i name="bandstr">    -18.12275774 </i>
    <i name="atom">     24.91341410 </i>
    <i name="e_fr_energy">     -6.10723943 </i>
    <i name="e_wo_entrp">     -6.10723943 </i>
    <i name="e_0_energy">     -6.10723943 </i>
   </energy>
  </scstep>
  <scstep>
   <time name="dav">    0.02    0.02</time>
   <time name="total">    0.08    0.08</time>
   <energy>
    <i name="e_fr_energy">     -6.10526290 </i>
    <i name="e_wo_entrp">     -6.10526290 </i>
    <i name="e_0_energy">     -6.10526290 </i>
   </energy>
  </scstep>
  <scstep>
   <time name="dav">    0.02    0.02</time>
   <time name="total">    0.08    0.08</time>
   <energy>
    <i name="e_fr_energy">     -6.10445204 </i>
    <i name="e_wo_entrp">     -6.10445204 </i>
    <i name="e_0_energy">     -6.10445204 </i>
   </energy>
  </scstep>
  <scstep>
   <time name="dav">    0.02    0.02</time>
   <time name="total">    0.08    0.08</time>
   <energy>
    <i name="e_fr_energy">     -6.10453951 </i>
    <i name="e_wo_entrp">     -6.10453951 </i>
    <i name="e_0_energy">     -6.10453951 </i>
   </energy>
  </scstep>
  <scstep>
   <time name="dav">    0.02    0.02</time>
   <time name="total">    0.08    0.08</time>
   <energy>
    <i name="e_fr_energy">     -6.10460126 </i>
    <i name="e_wo_entrp">     -6.10460126 </i>
    <i name="e_0_energy">     -6.10460126 </i>
   </energy>
  </scstep>
  <scstep>
   <time name="dav">    0.02    0.02</time>
   <time name="total">    0.08    0.08</time>
   <energy>
    <i name="e_fr_energy">     -6.10465759 </i>
    <i name="e_wo_entrp">     -6.10465759 </i>
    <i name="e_0_energy">     -6.10465759 </i>
   </energy>
  </scstep>
  <scstep>
   <time name="dav">    0.01    0.01</time>
   <time name="total">    0.07    0.07</time>
   <energy>
    <i name="alphaZ">      0.01906012 </i>
    <i name="ewald">      4.28094391 </i>
    <i name="hartreedc">    -21.55017716 </i>
    <i name="XCdc">      4.78759013 </i>
    <i name="pawpsdc">     15.51227598 </i>
    <i name="pawaedc">    -15.54245613 </i>
    <i name="eentropy">     -0.00000000 </i>
    <i name="bandstr">    -18.52531526 </i>
    <i name="atom">     24.91341410 </i>
    <i name="e_fr_energy">     -6.10466431 </i>
    <i name="e_wo_entrp">     -6.10466431 </i>
    <i name="e_0_energy">     -6.10466431 </i>
   </energy>
  </scstep>
  <structure>
   <crystal>
    <varray name="basis" >
     <v>       8.00000000       0.00000000       0.00000000 </v>
     <v>       0.00000000       8.00000000       0.00000000 </v>
     <v>       0.00000000       0.00000000       8.00000000 </v>
    </varray>
    <i name="volume">    512.00000000 </i>
    <varray name="rec_basis" >
     <v>       0.12500000       0.00000000       0.00000000 </v>
     <v>       0.00000000       0.12500000       0.00000000 </v>
     <v>       0.00000000       0.00000000       0.12500000 </v>
    </varray>
   </crystal>
   <varray name="positions" >
    <v>       0.50000000       0.50000000       0.50015286 </v>
    <v>       0.50000000       0.50000000       0.62484714 </v>
   </varray>
  </structure>
  <varray name="forces" >
   <v>      -0.00000000      -0.00000000       4.15239171 </v>
   <v>      -0.00000000       0.00000000      -4.15239171 </v>
  </varray>
  <varray name="stress" >
   <v>      -0.68391047      -0.00000000      -0.00000000 </v>
   <v>       0.00000000      -0.68391045      -0.00000000 </v>
   <v>       0.00000000      -0.00000000     -13.49148137 </v>
  </varray>
  <energy>
   <i name="e_fr_energy">     -6.10466431 </i>
   <i name="e_wo_entrp">     -6.10466431 </i>
   <i name="e_0_energy">     -6.10466431 </i>
   <i name="kinetic">      0.06650710 </i>
   <i name="lattice kinetic">      0.00000000 </i>
   <i name="nosepot">      0.00000000 </i>
   <i name="nosekinetic">      0.00000000 </i>
   <i name="total">     -6.03815721 </i>
  </energy>
  <time name="totalsc">    0.64    0.64</time>
 </calculation>
 <calculation>
  <scstep>
   <time name="dav">    0.01    0.01</time>
   <time name="total">    0.08    0.08</time>
   <energy>
    <i name="alphaZ">      0.01906012 </i>
    <i name="ewald">      4.13049529 </i>
    <i name="hartreedc">    -21.44196262 </i>
    <i name="XCdc">      4.77428842 </i>
    <i name="pawpsdc">     15.32779068 </i>
    <i name="pawaedc">    -15.35771848 </i>
    <i name="eentropy">     -0.00000000 </i>
    <i name="bandstr">    -18.42566670 </i>
    <i name="atom">     24.91341410 </i>
    <i name="e_fr_energy">     -6.06029918 </i>
    <i name="e_wo_entrp">     -6.06029918 </i>
    <i name="e_0_energy">     -6.06029918 </i>
   </energy>
  </scstep>
  <scstep>
   <time name="dav">    0.01    0.01</time>
   <time name="total">    0.07    0.07</time>
   <energy>
    <i name="alphaZ">      0.01906012 </i>
    <i name="ewald">      4.13049529 </i>
    <i name="hartreedc">    -21.42807185 </i>
    <i name="XCdc">      4.77226515 </i>
    <i name="pawpsdc">     15.25065509 </i>
    <i name="pawaedc">    -15.28046985 </i>
    <i name="eentropy">     -0.00000000 </i>
    <i name="bandstr">    -18.43763770 </i>
    <i name="atom">     24.91341410 </i>
    <i name="e_fr_energy">     -6.06028963 </i>
    <i name="e_wo_entrp">     -6.06028963 </i>
    <i name="e_0_energy">     -6.06028963 </i>
   </energy>
  </scstep>
  <structure>
   <crystal>
    <varray name="basis" >
     <v>       8.00000000       0.00000000       0.00000000 </v>
     <v>       0.00000000       8.00000000       0.00000000 </v>
     <v>       0.00000000       0.00000000       8.00000000 </v>
    </varray>
    <i name="volume">    512.00000000 </i>
    <varray name="rec_basis" >
     <v>       0.12500000       0.00000000       0.00000000 </v>
     <v>       0.00000000       0.12500000       0.00000000 </v>
     <v>       0.00000000       0.00000000       0.12500000 </v>
    </varray>
   </crystal>
   <varray name="positions" >
    <v>       0.50000000       0.50000000       0.49949042 </v>
    <v>       0.50000000       0.50000000       0.62550958 </v>
   </varray>
  </structure>
  <varray name="forces" >
   <v>       0.00000000      -0.00000000       4.21958957 </v>
   <v>      -0.00000000       0.00000000      -4.21958957 </v>
  </varray>
  <varray name="stress" >
   <v>      -0.70710477       0.00000000      -0.00000000 </v>
   <v>      -0.00000000      -0.70710482      -0.00000000 </v>
   <v>      -0.00000000       0.00000000     -13.84585274 </v>
  </varray>
  <energy>
   <i name="e_fr_energy">     -6.06028963 </i>
   <i name="e_wo_entrp">     -6.06028963 </i>
   <i name="e_0_energy">     -6.06028963 </i>
   <i name="kinetic">      0.02349700 </i>
   <i name="lattice kinetic">      0.00000000 </i>
   <i name="nosepot">      0.00000000 </i>
   <i name="nosekinetic">      0.00000000 </i>
   <i name="total">     -6.03679263 </i>
  </energy>
  <time name="totalsc">    0.25    0.26</time>
 </calculation>
 <calculation>
  <scstep>
   <time name="dav">    0.01    0.01</time>
   <time name="total">    0.08    0.08</time>
   <energy>
    <i name="alphaZ">      0.01906012 </i>
    <i name="ewald">      5.20130460 </i>
    <i name="hartreedc">    -21.95804776 </i>
    <i name="XCdc">      4.83458885 </i>
    <i name="pawpsdc">     15.07277080 </i>
    <i name="pawaedc">    -15.10236516 </i>
    <i name="eentropy">     -0.00000000 </i>
    <i name="bandstr">    -19.32315916 </i>
    <i name="atom">     24.91341410 </i>
    <i name="e_fr_energy">     -6.34243362 </i>
    <i name="e_wo_entrp">     -6.34243362 </i>
    <i name="e_0_energy">     -6.34243362 </i>
   </energy>
  </scstep>
  <scstep>
   <time name="dav">    0.02    0.02</time>
   <time name="total">    0.08    0.08</time>
   <energy>
    <i name="e_fr_energy">     -6.34073902 </i>
    <i name="e_wo_entrp">     -6.34073902 </i>
    <i name="e_0_energy">     -6.34073902 </i>
   </energy>
  </scstep>
  <scstep>
   <time name="dav">    0.01    0.01</time>
   <time name="total">    0.08    0.08</time>
   <energy>
    <i name="e_fr_energy">     -6.33992279 </i>
    <i name="e_wo_entrp">     -6.33992279 </i>
    <i name="e_0_energy">     -6.33992279 </i>
   </energy>
  </scstep>
  <scstep>
   <time name="dav">    0.01    0.01</time>
   <time name="total">    0.08    0.08</time>
   <energy>
    <i name="e_fr_energy">     -6.33995119 </i>
    <i name="e_wo_entrp">     -6.33995119 </i>
    <i name="e_0_energy">     -6.33995119 </i>
   </energy>
  </scstep>
  <scstep>
   <time name="dav">    0.01    0.01</time>
   <time name="total">    0.08    0.08</time>
   <energy>
    <i name="e_fr_energy">     -6.33999438 </i>
    <i name="e_wo_entrp">     -6.33999438 </i>
    <i name="e_0_energy">     -6.33999438 </i>
   </energy>
  </scstep>
  <scstep>
   <time name="dav">    0.01    0.01</time>
   <time name="total">    0.08    0.08</time>
   <energy>
    <i name="e_fr_energy">     -6.34002148 </i>
    <i name="e_wo_entrp">     -6.34002148 </i>
    <i name="e_0_energy">     -6.34002148 </i>
   </energy>
  </scstep>
  <scstep>
   <time name="dav">    0.01    0.01</time>
   <time name="total">    0.08    0.08</time>
   <energy>
    <i name="e_fr_energy">     -6.34005572 </i>
    <i name="e_wo_entrp">     -6.34005572 </i>
    <i name="e_0_energy">     -6.34005572 </i>
   </energy>
  </scstep>
  <scstep>
   <time name="dav">    0.01    0.01</time>
   <time name="total">    0.08    0.08</time>
   <energy>
    <i name="e_fr_energy">     -6.34007050 </i>
    <i name="e_wo_entrp">     -6.34007050 </i>
    <i name="e_0_energy">     -6.34007050 </i>
   </energy>
  </scstep>
  <scstep>
   <time name="dav">    0.01    0.01</time>
   <time name="total">    0.07    0.07</time>
   <energy>
    <i name="alphaZ">      0.01906012 </i>
    <i name="ewald">      5.20130460 </i>
    <i name="hartreedc">    -22.38780517 </i>
    <i name="XCdc">      4.89569471 </i>
    <i name="pawpsdc">     17.88904419 </i>
    <i name="pawaedc">    -17.92250743 </i>
    <i name="eentropy">     -0.00000000 </i>
    <i name="bandstr">    -18.94827779 </i>
    <i name="atom">     24.91341410 </i>
    <i name="e_fr_energy">     -6.34007267 </i>
    <i name="e_wo_entrp">     -6.34007267 </i>
    <i name="e_0_energy">     -6.34007267 </i>
   </energy>
  </scstep>
  <structure>
   <crystal>
    <varray name="basis" >
     <v>       8.00000000       0.00000000       0.00000000 </v>
     <v>       0.00000000       8.00000000       0.00000000 </v>
     <v>       0.00000000       0.00000000       8.00000000 </v>
    </varray>
    <i name="volume">    512.00000000 </i>
    <varray name="rec_basis" >
     <v>       0.12500000       0.00000000       0.00000000 </v>
     <v>       0.00000000       0.12500000       0.00000000 </v>
     <v>       0.00000000       0.00000000       0.12500000 </v>
    </varray>
   </crystal>
   <varray name="positions" >
    <v>       0.50000000       0.50000000       0.50391709 </v>
    <v>       0.50000000       0.50000000       0.62108291 </v>
   </varray>
  </structure>
  <varray name="forces" >
   <v>       0.00000000       0.00000000       3.62519151 </v>
   <v>      -0.00000000      -0.00000000      -3.62519151 </v>
  </varray>
  <varray name="stress" >
   <v>      -0.72302673      -0.00000000      -0.00000000 </v>
   <v>      -0.00000000      -0.72302669       0.00000000 </v>
   <v>      -0.00000000      -0.00000000     -11.29475267 </v>
  </varray>
  <energy>
   <i name="e_fr_energy">     -6.34007267 </i>
   <i name="e_wo_entrp">     -6.34007267 </i>
   <i name="e_0_energy">     -6.34007267 </i>
   <i name="kinetic">      0.29005950 </i>
   <i name="lattice kinetic">      0.00000000 </i>
   <i name="nosepot">      0.00000000 </i>
   <i name="nosekinetic">      0.00000000 </i>
   <i name="total">     -6.05001317 </i>
  </energy>
  <time name="totalsc">    0.80    0.81</time>
 </calculation>
 <calculation>
  <scstep>
   <time name="dav">    0.01    0.01</time>
   <time name="total">    0.08    0.08</time>
   <energy>
    <i name="alphaZ">      0.01906012 </i>
    <i name="ewald">      7.90162862 </i>
    <i name="hartreedc">    -24.35043739 </i>
    <i name="XCdc">      5.15183657 </i>
    <i name="pawpsdc">     23.43597648 </i>
    <i name="pawaedc">    -23.47695798 </i>
    <i name="eentropy">     -0.00000000 </i>
    <i name="bandstr">    -20.29900438 </i>
    <i name="atom">     24.91341410 </i>
    <i name="e_fr_energy">     -6.70448386 </i>
    <i name="e_wo_entrp">     -6.70448386 </i>
    <i name="e_0_energy">     -6.70448386 </i>
   </energy>
  </scstep>
  <scstep>
   <time name="dav">    0.01    0.01</time>
   <time name="total">    0.08    0.08</time>
   <energy>
    <i name="e_fr_energy">     -6.70389866 </i>
    <i name="e_wo_entrp">     -6.70389866 </i>
    <i name="e_0_energy">     -6.70389866 </i>
   </energy>
  </scstep>
  <scstep>
   <time name="dav">    0.01    0.01</time>
   <time name="total">    0.08    0.08</time>
   <energy>
    <i name="e_fr_energy">     -6.70373263 </i>
    <i name="e_wo_entrp">     -6.70373263 </i>
    <i name="e_0_energy">     -6.70373263 </i>
   </energy>
  </scstep>
  <scstep>
   <time name="dav">    0.01    0.01</time>
   <time name="total">    0.07    0.07</time>
   <energy>
    <i name="alphaZ">      0.01906012 </i>
    <i name="ewald">      7.90162862 </i>
    <i name="hartreedc">    -24.58933543 </i>
    <i name="XCdc">      5.18414270 </i>
    <i name="pawpsdc">     26.39504126 </i>
    <i name="pawaedc">    -26.43971660 </i>
    <i name="eentropy">     -0.00000000 </i>
    <i name="bandstr">    -20.08797645 </i>
    <i name="atom">     24.91341410 </i>
    <i name="e_fr_energy">     -6.70374167 </i>
    <i name="e_wo_entrp">     -6.70374167 </i>
    <i name="e_0_energy">     -6.70374167 </i>
   </energy>
  </scstep>
  <structure>
   <crystal>
    <varray name="basis" >
     <v>       8.00000000       0.00000000       0.00000000 </v>
     <v>       0.00000000       8.00000000       0.00000000 </v>
     <v>       0.00000000       0.00000000       8.00000000 </v>
    </varray>
    <i name="volume">    512.00000000 </i>
    <varray name="rec_basis" >
     <v>       0.12500000       0.00000000       0.00000000 </v>
     <v>       0.00000000       0.12500000       0.00000000 </v>
     <v>       0.00000000       0.00000000       0.12500000 </v>
    </varray>
   </crystal>
   <varray name="positions" >
    <v>       0.50000000       0.50000000       0.51271598 </v>
    <v>       0.50000000       0.50000000       0.61228402 </v>
   </varray>
  </structure>
  <varray name="forces" >
   <v>       0.00000000      -0.00000000       1.20237991 </v>
   <v>      -0.00000000      -0.00000000      -1.20237991 </v>
  </varray>
  <varray name="stress" >
   <v>      -0.82096590      -0.00000000      -0.00000000 </v>
   <v>      -0.00000000      -0.82096590      -0.00000000 </v>
   <v>      -0.00000000       0.00000000      -4.03628455 </v>
  </varray>
  <energy>
   <i name="e_fr_energy">     -6.70374167 </i>
   <i name="e_wo_entrp">     -6.70374167 </i>
   <i name="e_0_energy">     -6.70374167 </i>
   <i name="kinetic">      0.60166471 </i>
   <i name="lattice kinetic">      0.00000000 </i>
   <i name="nosepot">      0.00000000 </i>
   <i name="nosekinetic">      0.00000000 </i>
   <i name="total">     -6.10207696 </i>
  </energy>
  <time name="totalsc">    0.77    0.84</time>
 </calculation>
 <calculation>
  <scstep>
   <time name="dav">    0.01    0.01</time>
   <time name="total">    0.08    0.08</time>
   <energy>
    <i name="alphaZ">      0.01906012 </i>
    <i name="ewald">     12.57398530 </i>
    <i name="hartreedc">    -28.13573690 </i>
    <i name="XCdc">      5.67013577 </i>
    <i name="pawpsdc">     43.15222644 </i>
    <i name="pawaedc">    -43.21826188 </i>
    <i name="eentropy">     -0.00000000 </i>
    <i name="bandstr">    -21.38066515 </i>
    <i name="atom">     24.91341410 </i>
    <i name="e_fr_energy">     -6.40584219 </i>
    <i name="e_wo_entrp">     -6.40584219 </i>
    <i name="e_0_energy">     -6.40584219 </i>
   </energy>
  </scstep>
  <scstep>
   <time name="dav">    0.01    0.01</time>
   <time name="total">    0.07    0.08</time>
   <energy>
    <i name="e_fr_energy">     -6.40733205 </i>
    <i name="e_wo_entrp">     -6.40733205 </i>
    <i name="e_0_energy">     -6.40733205 </i>
   </energy>
  </scstep>
  <scstep>
   <time name="dav">    0.01    0.01</time>
   <time name="total">    0.07    0.07</time>
   <energy>
    <i name="e_fr_energy">     -6.40887547 </i>
    <i name="e_wo_entrp">     -6.40887547 </i>
    <i name="e_0_energy">     -6.40887547 </i>
   </energy>
  </scstep>
  <scstep>
   <time name="dav">    0.02    0.02</time>
   <time name="total">    0.08    0.08</time>
   <energy>
    <i name="e_fr_energy">     -6.40903325 </i>
    <i name="e_wo_entrp">     -6.40903325 </i>
    <i name="e_0_energy">     -6.40903325 </i>
   </energy>
  </scstep>
  <scstep>
   <time name="dav">    0.02    0.02</time>
   <time name="total">    0.08    0.08</time>
   <energy>
    <i name="e_fr_energy">     -6.40917024 </i>
    <i name="e_wo_entrp">     -6.40917024 </i>
    <i name="e_0_energy">     -6.40917024 </i>
   </energy>
  </scstep>
  <scstep>
   <time name="dav">    0.02    0.02</time>
   <time name="total">    0.08    0.08</time>
   <energy>
    <i name="e_fr_energy">     -6.40922360 </i>
    <i name="e_wo_entrp">     -6.40922360 </i>
    <i name="e_0_energy">     -6.40922360 </i>
   </energy>
  </scstep>
  <scstep>
   <time name="dav">    0.02    0.02</time>
   <time name="total">    0.08    0.08</time>
   <energy>
    <i name="e_fr_energy">     -6.40923779 </i>
    <i name="e_wo_entrp">     -6.40923779 </i>
    <i name="e_0_energy">     -6.40923779 </i>
   </energy>
  </scstep>
  <scstep>
   <time name="dav">    0.01    0.01</time>
   <time name="total">    0.07    0.08</time>
   <energy>
    <i name="e_fr_energy">     -6.40924969 </i>
    <i name="e_wo_entrp">     -6.40924969 </i>
    <i name="e_0_energy">     -6.40924969 </i>
   </energy>
  </scstep>
  <scstep>
   <time name="dav">    0.01    0.01</time>
   <time name="total">    0.07    0.07</time>
   <energy>
    <i name="alphaZ">      0.01906012 </i>
    <i name="ewald">     12.57398530 </i>
    <i name="hartreedc">    -27.68969535 </i>
    <i name="XCdc">      5.59662184 </i>
    <i name="pawpsdc">     41.94517064 </i>
    <i name="pawaedc">    -42.01630599 </i>
    <i name="eentropy">     -0.00000000 </i>
    <i name="bandstr">    -21.75150252 </i>
    <i name="atom">     24.91341410 </i>
    <i name="e_fr_energy">     -6.40925185 </i>
    <i name="e_wo_entrp">     -6.40925185 </i>
    <i name="e_0_energy">     -6.40925185 </i>
   </energy>
  </scstep>
  <structure>
   <crystal>
    <varray name="basis" >
     <v>       8.00000000       0.00000000       0.00000000 </v>
     <v>       0.00000000       8.00000000       0.00000000 </v>
     <v>       0.00000000       0.00000000       8.00000000 </v>
    </varray>
    <i name="volume">    512.00000000 </i>
    <varray name="rec_basis" >
     <v>       0.12500000       0.00000000       0.00000000 </v>
     <v>       0.00000000       0.12500000       0.00000000 </v>
     <v>       0.00000000       0.00000000       0.12500000 </v>
    </varray>
   </crystal>
   <varray name="positions" >
    <v>       0.50000000       0.50000000       0.52296503 </v>
    <v>       0.50000000       0.50000000       0.60203497 </v>
   </varray>
  </structure>
  <varray name="forces" >
   <v>      -0.00000000      -0.00000000      -6.06235946 </v>
   <v>       0.00000000       0.00000000       6.06235946 </v>
  </varray>
  <varray name="stress" >
   <v>      -0.98062286       0.00000000      -0.00000000 </v>
   <v>       0.00000000      -0.98062286       0.00000000 </v>
   <v>       0.00000000       0.00000000      11.12524803 </v>
  </varray>
  <energy>
   <i name="e_fr_energy">     -6.40925185 </i>
   <i name="e_wo_entrp">     -6.40925185 </i>
   <i name="e_0_energy">     -6.40925185 </i>
   <i name="kinetic">      0.28834757 </i>
   <i name="lattice kinetic">      0.00000000 </i>
   <i name="nosepot">      0.00000000 </i>
   <i name="nosekinetic">      0.00000000 </i>
   <i name="total">     -6.12090429 </i>
  </energy>
  <time name="totalsc">    0.78    0.79</time>
 </calculation>
 <calculation>
  <scstep>
   <time name="dav">    0.01    0.01</time>
   <time name="total">    0.08    0.08</time>
   <energy>
    <i name="alphaZ">      0.01906012 </i>
    <i name="ewald">     14.39769078 </i>
    <i name="hartreedc">    -28.54999649 </i>
    <i name="XCdc">      5.71284829 </i>
    <i name="pawpsdc">     46.42712779 </i>
    <i name="pawaedc">    -46.50475674 </i>
    <i name="eentropy">     -0.00000000 </i>
    <i name="bandstr">    -22.44942493 </i>
    <i name="atom">     24.91341410 </i>
    <i name="e_fr_energy">     -6.03403708 </i>
    <i name="e_wo_entrp">     -6.03403708 </i>
    <i name="e_0_energy">     -6.03403708 </i>
   </energy>
  </scstep>
  <scstep>
   <time name="dav">    0.01    0.01</time>
   <time name="total">    0.08    0.08</time>
   <energy>
    <i name="e_fr_energy">     -6.03369959 </i>
    <i name="e_wo_entrp">     -6.03369959 </i>
    <i name="e_0_energy">     -6.03369959 </i>
   </energy>
  </scstep>
  <scstep>
   <time name="dav">    0.01    0.01</time>
   <time name="total">    0.08    0.08</time>
   <energy>
    <i name="e_fr_energy">     -6.03365054 </i>
    <i name="e_wo_entrp">     -6.03365054 </i>
    <i name="e_0_energy">     -6.03365054 </i>
   </energy>
  </scstep>
  <scstep>
   <time name="dav">    0.01    0.01</time>
   <time name="total">    0.07    0.07</time>
   <energy>
    <i name="alphaZ">      0.01906012 </i>
    <i name="ewald">     14.39769078 </i>
    <i name="hartreedc">    -28.69511413 </i>
    <i name="XCdc">      5.73183583 </i>
    <i name="pawpsdc">     46.17907059 </i>
    <i name="pawaedc">    -46.26279374 </i>
    <i name="eentropy">     -0.00000000 </i>
    <i name="bandstr">    -22.31681584 </i>
    <i name="atom">     24.91341410 </i>
    <i name="e_fr_energy">     -6.03365228 </i>
    <i name="e_wo_entrp">     -6.03365228 </i>
    <i name="e_0_energy">     -6.03365228 </i>
   </energy>
  </scstep>
  <structure>
   <crystal>
    <varray name="basis" >
     <v>       8.00000000       0.00000000       0.00000000 </v>
     <v>       0.00000000       8.00000000       0.00000000 </v>
     <v>       0.00000000       0.00000000       8.00000000 </v>
    </varray>
    <i name="volume">    512.00000000 </i>
    <varray name="rec_basis" >
     <v>       0.12500000       0.00000000       0.00000000 </v>
     <v>       0.00000000       0.12500000       0.00000000 </v>
     <v>       0.00000000       0.00000000       0.12500000 </v>
    </varray>
   </crystal>
   <varray name="positions" >
    <v>       0.50000000       0.50000000       0.52590246 </v>
    <v>       0.50000000       0.50000000       0.59909754 </v>
   </varray>
  </structure>
  <varray name="forces" >
   <v>      -0.00000000      -0.00000000     -10.14997366 </v>
   <v>       0.00000000       0.00000000      10.14997366 </v>
  </varray>
  <varray name="stress" >
   <v>      -1.06214600      -0.00000000       0.00000000 </v>
   <v>       0.00000000      -1.06214602       0.00000000 </v>
   <v>       0.00000000       0.00000000      17.91131747 </v>
  </varray>
  <energy>
   <i name="e_fr_energy">     -6.03365228 </i>
   <i name="e_wo_entrp">     -6.03365228 </i>
   <i name="e_0_energy">     -6.03365228 </i>
   <i name="kinetic">      0.06721775 </i>
   <i name="lattice kinetic">      0.00000000 </i>
   <i name="nosepot">      0.00000000 </i>
   <i name="nosekinetic">      0.00000000 </i>
   <i name="total">     -5.96643454 </i>
  </energy>
  <time name="totalsc">    0.42    0.42</time>
 </calculation>
 <calculation>
  <scstep>
   <time name="dav">    0.01    0.01</time>
   <time name="total">    0.08    0.08</time>
   <energy>
    <i name="alphaZ">      0.01906012 </i>
    <i name="ewald">      9.42489906 </i>
    <i name="hartreedc">    -25.86052081 </i>
    <i name="XCdc">      5.35155432 </i>
    <i name="pawpsdc">     30.45543158 </i>
    <i name="pawaedc">    -30.51605578 </i>
    <i name="eentropy">     -0.00000000 </i>
    <i name="bandstr">    -20.51131259 </i>
    <i name="atom">     24.91341410 </i>
    <i name="e_fr_energy">     -6.72353001 </i>
    <i name="e_wo_entrp">     -6.72353001 </i>
    <i name="e_0_energy">     -6.72353001 </i>
   </energy>
  </scstep>
  <scstep>
   <time name="dav">    0.01    0.01</time>
   <time name="total">    0.08    0.08</time>
   <energy>
    <i name="e_fr_energy">     -6.72303320 </i>
    <i name="e_wo_entrp">     -6.72303320 </i>
    <i name="e_0_energy">     -6.72303320 </i>
   </energy>
  </scstep>
  <scstep>
   <time name="dav">    0.01    0.01</time>
   <time name="total">    0.08    0.08</time>
   <energy>
    <i name="e_fr_energy">     -6.72299718 </i>
    <i name="e_wo_entrp">     -6.72299718 </i>
    <i name="e_0_energy">     -6.72299718 </i>
   </energy>
  </scstep>
  <scstep>
   <time name="dav">    0.01    0.01</time>
   <time name="total">    0.07    0.07</time>
   <energy>
    <i name="alphaZ">      0.01906012 </i>
    <i name="ewald">      9.42489906 </i>
    <i name="hartreedc">    -25.68948072 </i>
    <i name="XCdc">      5.32940418 </i>
    <i name="pawpsdc">     31.82881551 </i>
    <i name="pawaedc">    -31.88128144 </i>
    <i name="eentropy">     -0.00000000 </i>
    <i name="bandstr">    -20.66783258 </i>
    <i name="atom">     24.91341410 </i>
    <i name="e_fr_energy">     -6.72300177 </i>
    <i name="e_wo_entrp">     -6.72300177 </i>
    <i name="e_0_energy">     -6.72300177 </i>
   </energy>
  </scstep>
  <structure>
   <crystal>
    <varray name="basis" >
     <v>       8.00000000       0.00000000       0.00000000 </v>
     <v>       0.00000000       8.00000000       0.00000000 </v>
     <v>       0.00000000       0.00000000       8.00000000 </v>
    </varray>
    <i name="volume">    512.00000000 </i>
    <varray name="rec_basis" >
     <v>       0.12500000       0.00000000       0.00000000 </v>
     <v>       0.00000000       0.12500000       0.00000000 </v>
     <v>       0.00000000       0.00000000       0.12500000 </v>
    </varray>
   </crystal>
   <varray name="positions" >
    <v>       0.50000000       0.50000000       0.51659835 </v>
    <v>       0.50000000       0.50000000       0.60840165 </v>
   </varray>
  </structure>
  <varray name="forces" >
   <v>      -0.00000000      -0.00000000      -0.70460804 </v>
   <v>       0.00000000      -0.00000000       0.70460804 </v>
  </varray>
  <varray name="stress" >
   <v>      -0.86467179      -0.00000000       0.00000000 </v>
   <v>       0.00000000      -0.86467184      -0.00000000 </v>
   <v>      -0.00000000      -0.00000000       0.53439221 </v>
  </varray>
  <energy>
   <i name="e_fr_energy">     -6.72300177 </i>
   <i name="e_wo_entrp">     -6.72300177 </i>
   <i name="e_0_energy">     -6.72300177 </i>
   <i name="kinetic">      0.62785022 </i>
   <i name="lattice kinetic">      0.00000000 </i>
   <i name="nosepot">      0.00000000 </i>
   <i name="nosekinetic">      0.00000000 </i>
   <i name="total">     -6.09515155 </i>
  </energy>
  <time name="totalsc">    0.41    0.42</time>
 </calculation>
 <calculation>
  <scstep>
   <time name="dav">    0.01    0.01</time>
   <time name="total">    0.08    0.08</time>
   <energy>
    <i name="alphaZ">      0.01906012 </i>
    <i name="ewald">      5.88941093 </i>
    <i name="hartreedc">    -23.52898327 </i>
    <i name="XCdc">      5.05213943 </i>
    <i name="pawpsdc">     25.64625367 </i>
    <i name="pawaedc">    -25.68518359 </i>
    <i name="eentropy">     -0.00000000 </i>
    <i name="bandstr">    -18.78684030 </i>
    <i name="atom">     24.91341410 </i>
    <i name="e_fr_energy">     -6.48072891 </i>
    <i name="e_wo_entrp">     -6.48072891 </i>
    <i name="e_0_energy">     -6.48072891 </i>
   </energy>
  </scstep>
  <scstep>
   <time name="dav">    0.02    0.02</time>
   <time name="total">    0.08    0.08</time>
   <energy>
    <i name="e_fr_energy">     -6.47792924 </i>
    <i name="e_wo_entrp">     -6.47792924 </i>
    <i name="e_0_energy">     -6.47792924 </i>
   </energy>
  </scstep>
  <scstep>
   <time name="dav">    0.01    0.01</time>
   <time name="total">    0.07    0.07</time>
   <energy>
    <i name="e_fr_energy">     -6.47679860 </i>
    <i name="e_wo_entrp">     -6.47679860 </i>
    <i name="e_0_energy">     -6.47679860 </i>
   </energy>
  </scstep>
  <scstep>
   <time name="dav">    0.01    0.01</time>
   <time name="total">    0.07    0.07</time>
   <energy>
    <i name="e_fr_energy">     -6.47690107 </i>
    <i name="e_wo_entrp">     -6.47690107 </i>
    <i name="e_0_energy">     -6.47690107 </i>
   </energy>
  </scstep>
  <scstep>
   <time name="dav">    0.02    0.02</time>
   <time name="total">    0.08    0.08</time>
   <energy>
    <i name="e_fr_energy">     -6.47696031 </i>
    <i name="e_wo_entrp">     -6.47696031 </i>
    <i name="e_0_energy">     -6.47696031 </i>
   </energy>
  </scstep>
  <scstep>
   <time name="dav">    0.02    0.02</time>
   <time name="total">    0.08    0.08</time>
   <energy>
    <i name="e_fr_energy">     -6.47698995 </i>
    <i name="e_wo_entrp">     -6.47698995 </i>
    <i name="e_0_energy">     -6.47698995 </i>
   </energy>
  </scstep>
  <scstep>
   <time name="dav">    0.02    0.02</time>
   <time name="total">    0.08    0.08</time>
   <energy>
    <i name="e_fr_energy">     -6.47701180 </i>
    <i name="e_wo_entrp">     -6.47701180 </i>
    <i name="e_0_energy">     -6.47701180 </i>
   </energy>
  </scstep>
  <scstep>
   <time name="dav">    0.01    0.01</time>
   <time name="total">    0.07    0.07</time>
   <energy>
    <i name="alphaZ">      0.01906012 </i>
    <i name="ewald">      5.88941093 </i>
    <i name="hartreedc">    -22.98282825 </i>
    <i name="XCdc">      4.97303187 </i>
    <i name="pawpsdc">     19.86742722 </i>
    <i name="pawaedc">    -19.90351656 </i>
    <i name="eentropy">     -0.00000000 </i>
    <i name="bandstr">    -19.25302111 </i>
    <i name="atom">     24.91341410 </i>
    <i name="e_fr_energy">     -6.47702168 </i>
    <i name="e_wo_entrp">     -6.47702168 </i>
    <i name="e_0_energy">     -6.47702168 </i>
   </energy>
  </scstep>
  <structure>
   <crystal>
    <varray name="basis" >
     <v>       8.00000000       0.00000000       0.00000000 </v>
     <v>       0.00000000       8.00000000       0.00000000 </v>
     <v>       0.00000000       0.00000000       8.00000000 </v>
    </varray>
    <i name="volume">    512.00000000 </i>
    <varray name="rec_basis" >
     <v>       0.12500000       0.00000000       0.00000000 </v>
     <v>       0.00000000       0.12500000       0.00000000 </v>
     <v>       0.00000000       0.00000000       0.12500000 </v>
    </varray>
   </crystal>
   <varray name="positions" >
    <v>       0.50000000       0.50000000       0.50644444 </v>
    <v>       0.50000000       0.50000000       0.61855556 </v>
   </varray>
  </structure>
  <varray name="forces" >
   <v>       0.00000000       0.00000000       3.12642299 </v>
   <v>      -0.00000000      -0.00000000      -3.12642299 </v>
  </varray>
  <varray name="stress" >
   <v>      -0.74953370       0.00000000       0.00000000 </v>
   <v>       0.00000000      -0.74953371      -0.00000000 </v>
[...]
       <r>    -0.1282   179.6072   206.8479 </r>
       <r>    -0.0874   238.0938   217.6117 </r>
       <r>    -0.0465   280.5342   230.6002 </r>
       <r>    -0.0056   237.2810   242.0243 </r>
       <r>     0.0353    46.7466   243.9999 </r>
       <r>     0.0762    77.9830   247.3062 </r>
       <r>     0.1171    16.4131   248.0021 </r>
       <r>     0.1580    54.7391   250.3240 </r>
       <r>     0.1989    39.2720   252.0000 </r>
       <r>     0.2398     3.1559   252.1349 </r>
       <r>     0.2807    73.7749   255.3010 </r>
       <r>     0.3216    16.1979   256.0000 </r>
       <r>     0.3625    43.8517   257.9053 </r>
       <r>     0.4033    48.4044   259.9994 </r>
       <r>     0.4442     0.0142   260.0000 </r>
       <r>     0.4851     0.0000   260.0000 </r>
       <r>     0.5260    36.9347   261.6131 </r>
       <r>     0.5669     8.8587   262.0000 </r>
       <r>     0.6078    41.1660   263.8182 </r>
       <r>     0.6487     5.7396   264.0724 </r>
       <r>     0.6896    45.0867   266.0837 </r>
       <r>     0.7305    42.4714   268.0000 </r>
       <r>     0.7714    15.5523   268.7071 </r>
       <r>     0.8123    33.8593   270.2476 </r>
       <r>     0.8531    82.6325   273.9991 </r>
       <r>     0.8940     2.9253   274.1329 </r>
       <r>     0.9349   131.2470   280.1857 </r>
       <r>     0.9758    40.1090   282.0641 </r>
       <r>     1.0167    83.0502   285.9603 </r>
       <r>     1.0576    36.0798   287.6778 </r>
       <r>     1.0985    11.0731   288.2060 </r>
       <r>     1.1394   101.2227   293.0948 </r>
       <r>     1.1803   141.7044   300.0000 </r>
       <r>     1.2212     0.0000   300.0000 </r>
       <r>     1.2621    53.7140   302.2408 </r>
       <r>     1.3030  1394.3659   359.4586 </r>
       <r>     1.3438  1206.1914   410.0274 </r>
       <r>     1.3847   695.8823   440.7660 </r>
       <r>     1.4256   649.6636   470.9864 </r>
       <r>     1.4665   606.2678   499.9907 </r>
       <r>     1.5074     0.1930   500.0000 </r>
       <r>     1.5483     0.0000   500.0000 </r>
       <r>     1.5892     0.0000   500.0000 </r>
       <r>     1.6301     0.0000   500.0000 </r>
       <r>     1.6710     0.0000   500.0000 </r>
       <r>     1.7119     0.0000   500.0000 </r>
       <r>     1.7528     0.0000   500.0000 </r>
       <r>     1.7937     0.0000   500.0000 </r>
       <r>     1.8345     0.0000   500.0000 </r>
       <r>     1.8754    31.0786   501.3215 </r>
       <r>     1.9163  2271.9029   599.9935 </r>
       <r>     1.9572     0.1573   600.0000 </r>
       <r>     1.9981     0.0000   600.0000 </r>
       <r>     2.0390     0.0000   600.0000 </r>
       <r>     2.0799     0.0000   600.0000 </r>
       <r>     2.1208     0.0000   600.0000 </r>
       <r>     2.1617     0.0000   600.0000 </r>
       <r>     2.2026     0.0000   600.0000 </r>
       <r>     2.2435     0.0000   600.0000 </r>
       <r>     2.2843     0.0000   600.0000 </r>
       <r>     2.3252     0.0000   600.0000 </r>
       <r>     2.3661     0.0000   600.0000 </r>
       <r>     2.4070     0.0000   600.0000 </r>
       <r>     2.4479     0.0000   600.0000 </r>
      </set>
     </set>
    </array>
   </total>
  </dos>
  <time name="totalsc">    0.45    0.46</time>
  <eigenvalues>
   <array>
    <dimension dim="1">band</dimension>
    <dimension dim="2">kpoint</dimension>
    <dimension dim="3">spin</dimension>
    <field>eigene</field>
    <field>occ</field>
    <set>
     <set comment="spin 1">
      <set comment="kpoint 1">
       <r>   -9.6518    1.0000 </r>
       <r>   -0.2411    0.0000 </r>
       <r>   -0.0406    0.0000 </r>
       <r>    1.3166    0.0000 </r>
       <r>    1.3166    0.0000 </r>
       <r>    1.9252    0.0000 </r>
      </set>
     </set>
    </set>
   </array>
  </eigenvalues>
  <separator name="orbital magnetization" >
   <v name="MAGDIPOLOUT">      0.00000000      0.00000000      0.00000000</v>
  </separator>
  <dos>
   <i name="efermi">     -9.58329266 </i>
   <total>
    <array>
     <dimension dim="1">gridpoints</dimension>
     <dimension dim="2">spin</dimension>
     <field>energy</field>
     <field>total</field>
     <field>integrated</field>
     <set>
      <set comment="spin 1">
       <r>   -10.2306     0.0000     0.0000 </r>
       <r>   -10.1882     0.0000     0.0000 </r>
       <r>   -10.1457     0.0000     0.0000 </r>
       <r>   -10.1033     0.0000     0.0000 </r>
       <r>   -10.0608     0.0000     0.0000 </r>
       <r>   -10.0184     0.0000     0.0000 </r>
       <r>    -9.9759     0.0000     0.0000 </r>
       <r>    -9.9335     0.0000     0.0000 </r>
       <r>    -9.8910     0.0000     0.0000 </r>
       <r>    -9.8486     0.0000     0.0000 </r>
       <r>    -9.8061     0.0000     0.0000 </r>
       <r>    -9.7637     0.0000     0.0000 </r>
       <r>    -9.7213     0.0000     0.0000 </r>
       <r>    -9.6788     0.0031     0.0001 </r>
       <r>    -9.6364    46.4282     1.9710 </r>
       <r>    -9.5939     0.6841     2.0000 </r>
       <r>    -9.5515     0.0000     2.0000 </r>
       <r>    -9.5090     0.0000     2.0000 </r>
       <r>    -9.4666     0.0000     2.0000 </r>
       <r>    -9.4241     0.0000     2.0000 </r>
       <r>    -9.3817     0.0000     2.0000 </r>
       <r>    -9.3392     0.0000     2.0000 </r>
       <r>    -9.2968     0.0000     2.0000 </r>
       <r>    -9.2543     0.0000     2.0000 </r>
       <r>    -9.2119     0.0000     2.0000 </r>
       <r>    -9.1694     0.0000     2.0000 </r>
       <r>    -9.1270     0.0000     2.0000 </r>
       <r>    -9.0845     0.0000     2.0000 </r>
       <r>    -9.0421     0.0000     2.0000 </r>
       <r>    -8.9996     0.0000     2.0000 </r>
       <r>    -8.9572     0.0000     2.0000 </r>
       <r>    -8.9147     0.0000     2.0000 </r>
       <r>    -8.8723     0.0000     2.0000 </r>
       <r>    -8.8298     0.0000     2.0000 </r>
       <r>    -8.7874     0.0000     2.0000 </r>
       <r>    -8.7449     0.0000     2.0000 </r>
       <r>    -8.7025     0.0000     2.0000 </r>
       <r>    -8.6600     0.0000     2.0000 </r>
       <r>    -8.6176     0.0000     2.0000 </r>
       <r>    -8.5751     0.0000     2.0000 </r>
       <r>    -8.5327     0.0000     2.0000 </r>
       <r>    -8.4902     0.0000     2.0000 </r>
       <r>    -8.4478     0.0000     2.0000 </r>
       <r>    -8.4053     0.0000     2.0000 </r>
       <r>    -8.3629     0.0000     2.0000 </r>
       <r>    -8.3204     0.0000     2.0000 </r>
       <r>    -8.2780     0.0000     2.0000 </r>
       <r>    -8.2355     0.0000     2.0000 </r>
       <r>    -8.1931     0.0000     2.0000 </r>
       <r>    -8.1506     0.0000     2.0000 </r>
       <r>    -8.1082     0.0000     2.0000 </r>
       <r>    -8.0657     0.0000     2.0000 </r>
       <r>    -8.0233     0.0000     2.0000 </r>
       <r>    -7.9808     0.0000     2.0000 </r>
       <r>    -7.9384     0.0000     2.0000 </r>
       <r>    -7.8959     0.0000     2.0000 </r>
       <r>    -7.8535     0.0000     2.0000 </r>
       <r>    -7.8110     0.0000     2.0000 </r>
       <r>    -7.7686     0.0000     2.0000 </r>
       <r>    -7.7262     0.0000     2.0000 </r>
       <r>    -7.6837     0.0000     2.0000 </r>
       <r>    -7.6413     0.0000     2.0000 </r>
       <r>    -7.5988     0.0000     2.0000 </r>
       <r>    -7.5564     0.0000     2.0000 </r>
       <r>    -7.5139     0.0000     2.0000 </r>
       <r>    -7.4715     0.0000     2.0000 </r>
       <r>    -7.4290     0.0000     2.0000 </r>
       <r>    -7.3866     0.0000     2.0000 </r>
       <r>    -7.3441     0.0000     2.0000 </r>
       <r>    -7.3017     0.0000     2.0000 </r>
       <r>    -7.2592     0.0000     2.0000 </r>
       <r>    -7.2168     0.0000     2.0000 </r>
       <r>    -7.1743     0.0000     2.0000 </r>
       <r>    -7.1319     0.0000     2.0000 </r>
       <r>    -7.0894     0.0000     2.0000 </r>
       <r>    -7.0470     0.0000     2.0000 </r>
       <r>    -7.0045     0.0000     2.0000 </r>
       <r>    -6.9621     0.0000     2.0000 </r>
       <r>    -6.9196     0.0000     2.0000 </r>
       <r>    -6.8772     0.0000     2.0000 </r>
       <r>    -6.8347     0.0000     2.0000 </r>
       <r>    -6.7923     0.0000     2.0000 </r>
       <r>    -6.7498     0.0000     2.0000 </r>
       <r>    -6.7074     0.0000     2.0000 </r>
       <r>    -6.6649     0.0000     2.0000 </r>
       <r>    -6.6225     0.0000     2.0000 </r>
       <r>    -6.5800     0.0000     2.0000 </r>
       <r>    -6.5376     0.0000     2.0000 </r>
       <r>    -6.4951     0.0000     2.0000 </r>
       <r>    -6.4527     0.0000     2.0000 </r>
       <r>    -6.4102     0.0000     2.0000 </r>
       <r>    -6.3678     0.0000     2.0000 </r>
       <r>    -6.3253     0.0000     2.0000 </r>
       <r>    -6.2829     0.0000     2.0000 </r>
       <r>    -6.2404     0.0000     2.0000 </r>
       <r>    -6.1980     0.0000     2.0000 </r>
       <r>    -6.1555     0.0000     2.0000 </r>
       <r>    -6.1131     0.0000     2.0000 </r>
       <r>    -6.0706     0.0000     2.0000 </r>
       <r>    -6.0282     0.0000     2.0000 </r>
       <r>    -5.9857     0.0000     2.0000 </r>
       <r>    -5.9433     0.0000     2.0000 </r>
       <r>    -5.9008     0.0000     2.0000 </r>
       <r>    -5.8584     0.0000     2.0000 </r>
       <r>    -5.8159     0.0000     2.0000 </r>
       <r>    -5.7735     0.0000     2.0000 </r>
       <r>    -5.7311     0.0000     2.0000 </r>
       <r>    -5.6886     0.0000     2.0000 </r>
       <r>    -5.6462     0.0000     2.0000 </r>
       <r>    -5.6037     0.0000     2.0000 </r>
       <r>    -5.5613     0.0000     2.0000 </r>
       <r>    -5.5188     0.0000     2.0000 </r>
       <r>    -5.4764     0.0000     2.0000 </r>
       <r>    -5.4339     0.0000     2.0000 </r>
       <r>    -5.3915     0.0000     2.0000 </r>
       <r>    -5.3490     0.0000     2.0000 </r>
       <r>    -5.3066     0.0000     2.0000 </r>
       <r>    -5.2641     0.0000     2.0000 </r>
       <r>    -5.2217     0.0000     2.0000 </r>
       <r>    -5.1792     0.0000     2.0000 </r>
       <r>    -5.1368     0.0000     2.0000 </r>
       <r>    -5.0943     0.0000     2.0000 </r>
       <r>    -5.0519     0.0000     2.0000 </r>
       <r>    -5.0094     0.0000     2.0000 </r>
       <r>    -4.9670     0.0000     2.0000 </r>
       <r>    -4.9245     0.0000     2.0000 </r>
       <r>    -4.8821     0.0000     2.0000 </r>
       <r>    -4.8396     0.0000     2.0000 </r>
       <r>    -4.7972     0.0000     2.0000 </r>
       <r>    -4.7547     0.0000     2.0000 </r>
       <r>    -4.7123     0.0000     2.0000 </r>
       <r>    -4.6698     0.0000     2.0000 </r>
       <r>    -4.6274     0.0000     2.0000 </r>
       <r>    -4.5849     0.0000     2.0000 </r>
       <r>    -4.5425     0.0000     2.0000 </r>
       <r>    -4.5000     0.0000     2.0000 </r>
       <r>    -4.4576     0.0000     2.0000 </r>
       <r>    -4.4151     0.0000     2.0000 </r>
       <r>    -4.3727     0.0000     2.0000 </r>
       <r>    -4.3302     0.0000     2.0000 </r>
       <r>    -4.2878     0.0000     2.0000 </r>
       <r>    -4.2453     0.0000     2.0000 </r>
       <r>    -4.2029     0.0000     2.0000 </r>
       <r>    -4.1604     0.0000     2.0000 </r>
       <r>    -4.1180     0.0000     2.0000 </r>
       <r>    -4.0755     0.0000     2.0000 </r>
       <r>    -4.0331     0.0000     2.0000 </r>
       <r>    -3.9906     0.0000     2.0000 </r>
       <r>    -3.9482     0.0000     2.0000 </r>
       <r>    -3.9057     0.0000     2.0000 </r>
       <r>    -3.8633     0.0000     2.0000 </r>
       <r>    -3.8208     0.0000     2.0000 </r>
       <r>    -3.7784     0.0000     2.0000 </r>
       <r>    -3.7359     0.0000     2.0000 </r>
       <r>    -3.6935     0.0000     2.0000 </r>
       <r>    -3.6511     0.0000     2.0000 </r>
       <r>    -3.6086     0.0000     2.0000 </r>
       <r>    -3.5662     0.0000     2.0000 </r>
       <r>    -3.5237     0.0000     2.0000 </r>
       <r>    -3.4813     0.0000     2.0000 </r>
       <r>    -3.4388     0.0000     2.0000 </r>
       <r>    -3.3964     0.0000     2.0000 </r>
       <r>    -3.3539     0.0000     2.0000 </r>
       <r>    -3.3115     0.0000     2.0000 </r>
       <r>    -3.2690     0.0000     2.0000 </r>
       <r>    -3.2266     0.0000     2.0000 </r>
       <r>    -3.1841     0.0000     2.0000 </r>
       <r>    -3.1417     0.0000     2.0000 </r>
       <r>    -3.0992     0.0000     2.0000 </r>
       <r>    -3.0568     0.0000     2.0000 </r>
       <r>    -3.0143     0.0000     2.0000 </r>
       <r>    -2.9719     0.0000     2.0000 </r>
       <r>    -2.9294     0.0000     2.0000 </r>
       <r>    -2.8870     0.0000     2.0000 </r>
       <r>    -2.8445     0.0000     2.0000 </r>
       <r>    -2.8021     0.0000     2.0000 </r>
       <r>    -2.7596     0.0000     2.0000 </r>
       <r>    -2.7172     0.0000     2.0000 </r>
       <r>    -2.6747     0.0000     2.0000 </r>
       <r>    -2.6323     0.0000     2.0000 </r>
       <r>    -2.5898     0.0000     2.0000 </r>
       <r>    -2.5474     0.0000     2.0000 </r>
       <r>    -2.5049     0.0000     2.0000 </r>
       <r>    -2.4625     0.0000     2.0000 </r>
       <r>    -2.4200     0.0000     2.0000 </r>
       <r>    -2.3776     0.0000     2.0000 </r>
       <r>    -2.3351     0.0000     2.0000 </r>
       <r>    -2.2927     0.0000     2.0000 </r>
       <r>    -2.2502     0.0000     2.0000 </r>
       <r>    -2.2078     0.0000     2.0000 </r>
       <r>    -2.1653     0.0000     2.0000 </r>
       <r>    -2.1229     0.0000     2.0000 </r>
       <r>    -2.0804     0.0000     2.0000 </r>
       <r>    -2.0380     0.0000     2.0000 </r>
       <r>    -1.9955     0.0000     2.0000 </r>
       <r>    -1.9531     0.0000     2.0000 </r>
       <r>    -1.9106     0.0000     2.0000 </r>
       <r>    -1.8682     0.0000     2.0000 </r>
       <r>    -1.8257     0.0000     2.0000 </r>
       <r>    -1.7833     0.0000     2.0000 </r>
       <r>    -1.7408     0.0000     2.0000 </r>
       <r>    -1.6984     0.0000     2.0000 </r>
       <r>    -1.6560     0.0000     2.0000 </r>
       <r>    -1.6135     0.0000     2.0000 </r>
       <r>    -1.5711     0.0000     2.0000 </r>
       <r>    -1.5286     0.0000     2.0000 </r>
       <r>    -1.4862     0.0000     2.0000 </r>
       <r>    -1.4437     0.0000     2.0000 </r>
       <r>    -1.4013     0.0000     2.0000 </r>
       <r>    -1.3588     0.0000     2.0000 </r>
       <r>    -1.3164     0.0000     2.0000 </r>
       <r>    -1.2739     0.0000     2.0000 </r>
       <r>    -1.2315     0.0000     2.0000 </r>
       <r>    -1.1890     0.0000     2.0000 </r>
       <r>    -1.1466     0.0000     2.0000 </r>
       <r>    -1.1041     0.0000     2.0000 </r>
       <r>    -1.0617     0.0000     2.0000 </r>
       <r>    -1.0192     0.0000     2.0000 </r>
       <r>    -0.9768     0.0000     2.0000 </r>
       <r>    -0.9343     0.0000     2.0000 </r>
       <r>    -0.8919     0.0000     2.0000 </r>
       <r>    -0.8494     0.0000     2.0000 </r>
       <r>    -0.8070     0.0000     2.0000 </r>
       <r>    -0.7645     0.0000     2.0000 </r>
       <r>    -0.7221     0.0000     2.0000 </r>
       <r>    -0.6796     0.0000     2.0000 </r>
       <r>    -0.6372     0.0000     2.0000 </r>
       <r>    -0.5947     0.0000     2.0000 </r>
       <r>    -0.5523     0.0000     2.0000 </r>
       <r>    -0.5098     0.0000     2.0000 </r>
       <r>    -0.4674     0.0000     2.0000 </r>
       <r>    -0.4249     0.0000     2.0000 </r>
       <r>    -0.3825     0.0000     2.0000 </r>
       <r>    -0.3400     0.0000     2.0000 </r>
       <r>    -0.2976     0.0000     2.0000 </r>
       <r>    -0.2551     1.1120     2.0472 </r>
       <r>    -0.2127    46.0021     3.9999 </r>
       <r>    -0.1702     0.0014     4.0000 </r>
       <r>    -0.1278     0.0000     4.0000 </r>
       <r>    -0.0853     0.0000     4.0000 </r>
       <r>    -0.0429    17.4685     4.7415 </r>
       <r>    -0.0004    29.6469     6.0000 </r>
       <r>     0.0420     0.0000     6.0000 </r>
       <r>     0.0845     0.0000     6.0000 </r>
       <r>     0.1269     0.0000     6.0000 </r>
       <r>     0.1694     0.0000     6.0000 </r>
       <r>     0.2118     0.0000     6.0000 </r>
       <r>     0.2543     0.0000     6.0000 </r>
       <r>     0.2967     0.0000     6.0000 </r>
       <r>     0.3392     0.0000     6.0000 </r>
       <r>     0.3816     0.0000     6.0000 </r>
       <r>     0.4240     0.0000     6.0000 </r>
       <r>     0.4665     0.0000     6.0000 </r>
       <r>     0.5089     0.0000     6.0000 </r>
       <r>     0.5514     0.0000     6.0000 </r>
       <r>     0.5938     0.0000     6.0000 </r>
       <r>     0.6363     0.0000     6.0000 </r>
       <r>     0.6787     0.0000     6.0000 </r>
       <r>     0.7212     0.0000     6.0000 </r>
       <r>     0.7636     0.0000     6.0000 </r>
       <r>     0.8061     0.0000     6.0000 </r>
       <r>     0.8485     0.0000     6.0000 </r>
       <r>     0.8910     0.0000     6.0000 </r>
       <r>     0.9334     0.0000     6.0000 </r>
       <r>     0.9759     0.0000     6.0000 </r>
       <r>     1.0183     0.0000     6.0000 </r>
       <r>     1.0608     0.0000     6.0000 </r>
       <r>     1.1032     0.0000     6.0000 </r>
       <r>     1.1457     0.0000     6.0000 </r>
       <r>     1.1881     0.0000     6.0000 </r>
       <r>     1.2306     0.0000     6.0000 </r>
       <r>     1.2730     0.0000     6.0000 </r>
       <r>     1.3155    41.0488     7.7425 </r>
       <r>     1.3579    53.1820    10.0000 </r>
       <r>     1.4004     0.0000    10.0000 </r>
       <r>     1.4428     0.0000    10.0000 </r>
       <r>     1.4853     0.0000    10.0000 </r>
       <r>     1.5277     0.0000    10.0000 </r>
       <r>     1.5702     0.0000    10.0000 </r>
       <r>     1.6126     0.0000    10.0000 </r>
       <r>     1.6551     0.0000    10.0000 </r>
       <r>     1.6975     0.0000    10.0000 </r>
       <r>     1.7400     0.0000    10.0000 </r>
       <r>     1.7824     0.0000    10.0000 </r>
       <r>     1.8249     0.0000    10.0000 </r>
       <r>     1.8673     0.0000    10.0000 </r>
       <r>     1.9098     0.6841    10.0290 </r>
       <r>     1.9522    46.4282    11.9999 </r>
       <r>     1.9947     0.0031    12.0000 </r>
       <r>     2.0371     0.0000    12.0000 </r>
       <r>     2.0796     0.0000    12.0000 </r>
       <r>     2.1220     0.0000    12.0000 </r>
       <r>     2.1645     0.0000    12.0000 </r>
       <r>     2.2069     0.0000    12.0000 </r>
       <r>     2.2494     0.0000    12.0000 </r>
       <r>     2.2918     0.0000    12.0000 </r>
       <r>     2.3343     0.0000    12.0000 </r>
       <r>     2.3767     0.0000    12.0000 </r>
       <r>     2.4191     0.0000    12.0000 </r>
       <r>     2.4616     0.0000    12.0000 </r>
       <r>     2.5040     0.0000    12.0000 </r>
      </set>
     </set>
    </array>
   </total>
  </dos>
 </calculation>
 <structure name="finalpos" >
  <crystal>
   <varray name="basis" >
    <v>       8.00000000       0.00000000       0.00000000 </v>
    <v>       0.00000000       8.00000000       0.00000000 </v>
    <v>       0.00000000       0.00000000       8.00000000 </v>
   </varray>
   <i name="volume">    512.00000000 </i>
   <varray name="rec_basis" >
    <v>       0.12500000       0.00000000       0.00000000 </v>
    <v>       0.00000000       0.12500000       0.00000000 </v>
    <v>       0.00000000       0.00000000       0.12500000 </v>
   </varray>
  </crystal>
  <varray name="positions" >
   <v>       0.49999951       0.49995222       0.50655460 </v>
   <v>       0.50000049       0.50004778       0.61844540 </v>
  </varray>
  <varray name="velocities" >
   <v>       0.00000004       0.00000405       0.00642912 </v>
   <v>      -0.00000004      -0.00000405      -0.00642912 </v>
  </varray>
 </structure>
</modeling>
