192
Lattice="6.22321522 0.00000000 0.00000000 -3.10548432 5.39298588 0.00000000 0.00000000 0.00000000 11.09719400 " Properties=species:S:1:pos:R:3:forces:R:3:energies:R:1 energy=-430.86999832 pbc="T T T"
H 0.25030434 0.42113901 0.06009431 0.30118973 -0.35023736 -0.05728161  0.00000000
H 0.87816269 0.15508595 0.56284195 0.29155895 0.00376005 0.00223808  0.00000000
H 0.50395157 0.16966601 0.56233513 -0.40114014 -0.06266771 -0.00673827  0.00000000
H 0.99790419 0.40964366 0.56474913 0.16258709 0.42054365 0.05876755  0.00000000
H 0.60779336 0.03675026 0.56906556 -0.18896729 -0.31026037 0.05628519  0.00000000
H 0.82886229 0.49969510 0.68990567 0.45330466 -0.08608656 0.05721557  0.00000000
H 0.94311225 0.48969709 0.69408261 -0.36543765 -0.00389004 0.04882776  0.00000000
H 0.59491375 0.37183232 0.68715847 0.14137424 -0.25286136 -0.00235438  0.00000000
H 0.58033504 0.24605331 0.68766464 -0.14525226 0.37727859 0.00662684  0.00000000
H 0.84035268 0.25209241 0.68525081 -0.28252960 -0.34972538 -0.05873248  0.00000000
H 0.76030266 0.30688546 0.55591727 -0.17931830 0.31925271 -0.04880069  0.00000000
H 0.71325405 0.14221054 0.68093439 0.17371515 0.31730693 -0.05639024  0.00000000
H 0.73969734 0.19311454 0.94408273 0.17931999 -0.31927298 0.04880620  0.00000000
H 0.62183731 0.34491405 0.93715805 -0.29152939 -0.00374840 -0.00224968  0.00000000
H 0.99604843 0.33033399 0.93766487 0.40118074 0.06266613 0.00672368  0.00000000
H 0.50209581 0.09035634 0.93525087 -0.16256052 -0.42053451 -0.05876395  0.00000000
H 0.89220664 0.46324974 0.93093444 0.18894855 0.31020519 -0.05628534  0.00000000
H 0.67113771 0.00030490 0.81009433 -0.45336571 0.08606837 -0.05722078  0.00000000
H 0.55688775 0.01030291 0.80591739 0.36547640 0.00386696 -0.04880680  0.00000000
H 0.90508625 0.12816768 0.81284153 -0.14137243 0.25282984 0.00234601  0.00000000
H 0.91966496 0.25394669 0.81233536 0.14526402 -0.37729360 -0.00662054  0.00000000
H 0.74969566 0.07886099 0.93990569 -0.30118972 0.35022700 0.05727206  0.00000000
H 0.65964732 0.24790759 0.81474919 0.28255790 0.34978418 0.05873631  0.00000000
H 0.75030434 0.42113901 0.56009431 0.30116493 -0.35022407 -0.05727390  0.00000000
H 0.65964732 0.24790759 0.31474919 0.28252681 0.34975707 0.05874375  0.00000000
H 0.87816269 0.15508595 0.06284195 0.29150895 0.00374185 0.00226076  0.00000000
H 0.50395157 0.16966601 0.06233513 -0.40116252 -0.06268101 -0.00672171  0.00000000
H 0.99790419 0.40964366 0.06474913 0.16257049 0.42052509 0.05877470  0.00000000
H 0.60779336 0.03675026 0.06906556 -0.18893207 -0.31023284 0.05630102  0.00000000
H 0.82886229 0.49969510 0.18990567 0.45332485 -0.08608691 0.05719179  0.00000000
H 0.94311225 0.48969709 0.19408261 -0.36545011 -0.00391959 0.04879473  0.00000000
H 0.59491375 0.37183232 0.18715847 0.14137699 -0.25284988 -0.00234871  0.00000000
H 0.58033504 0.24605331 0.18766464 -0.14526563 0.37728835 0.00662069  0.00000000
H 0.84035268 0.25209241 0.18525081 -0.28254284 -0.34970744 -0.05874889  0.00000000
H 0.78674595 0.35778946 0.31906561 -0.17372947 -0.31739307 0.05637506  0.00000000
H 0.71325405 0.14221054 0.18093439 0.17371520 0.31733153 -0.05638602  0.00000000
H 0.73969734 0.19311454 0.44408273 0.17935878 -0.31928622 0.04882692  0.00000000
H 0.62183731 0.34491405 0.43715805 -0.29154104 -0.00374577 -0.00224375  0.00000000
H 0.99604843 0.33033399 0.43766487 0.40116686 0.06265663 0.00673176  0.00000000
H 0.50209581 0.09035634 0.43525087 -0.16256731 -0.42055268 -0.05876704  0.00000000
H 0.89220664 0.46324974 0.43093444 0.18892900 0.31022253 -0.05628534  0.00000000
H 0.67113771 0.00030490 0.31009433 -0.45333365 0.08609669 -0.05719953  0.00000000
H 0.55688775 0.01030291 0.30591739 0.36542654 0.00388408 -0.04880490  0.00000000
H 0.90508625 0.12816768 0.31284153 -0.14134436 0.25283237 0.00236242  0.00000000
H 0.91966496 0.25394669 0.31233536 0.14525338 -0.37724884 -0.00662499  0.00000000
H 0.74969566 0.07886099 0.43990569 -0.30116612 0.35022347 0.05730553  0.00000000
H 0.76030266 0.30688546 0.05591727 -0.17933007 0.31924066 -0.04883701  0.00000000
H 0.78674595 0.35778946 0.81906561 -0.17376249 -0.31738934 0.05635645  0.00000000
H 0.76030266 0.80688546 0.05591727 -0.17933434 0.31925301 -0.04881627  0.00000000
H 0.87816269 0.65508595 0.56284195 0.29151939 0.00376357 0.00223961  0.00000000
H 0.50395157 0.66966601 0.56233513 -0.40114241 -0.06265355 -0.00670637  0.00000000
H 0.99790419 0.90964366 0.56474913 0.16258092 0.42058335 0.05878551  0.00000000
H 0.60779336 0.53675026 0.56906556 -0.18894934 -0.31027343 0.05628419  0.00000000
H 0.82886229 0.99969510 0.68990567 0.45334569 -0.08607308 0.05721881  0.00000000
H 0.94311225 0.98969709 0.69408261 -0.36545174 -0.00389336 0.04882313  0.00000000
H 0.59491375 0.87183232 0.68715847 0.14135387 -0.25287921 -0.00235392  0.00000000
H 0.58033504 0.74605331 0.68766464 -0.14529364 0.37729894 0.00664076  0.00000000
H 0.84035268 0.75209241 0.68525081 -0.28254133 -0.34974781 -0.05875041  0.00000000
H 0.76030266 0.80688546 0.55591727 -0.17932841 0.31921496 -0.04883068  0.00000000
H 0.71325405 0.64221054 0.68093439 0.17377003 0.31736639 -0.05636695  0.00000000
H 0.73969734 0.69311454 0.94408273 0.17930020 -0.31925189 0.04881012  0.00000000
H 0.62183731 0.84491405 0.93715805 -0.29152775 -0.00374424 -0.00223408  0.00000000
H 0.99604843 0.83033399 0.93766487 0.40115817 0.06266495 0.00672437  0.00000000
H 0.50209581 0.59035634 0.93525087 -0.16255652 -0.42053454 -0.05878478  0.00000000
H 0.89220664 0.96324974 0.93093444 0.18891794 0.31019834 -0.05629017  0.00000000
H 0.67113771 0.50030490 0.81009433 -0.45336126 0.08608347 -0.05723151  0.00000000
H 0.55688775 0.51030291 0.80591739 0.36548714 0.00389718 -0.04882481  0.00000000
H 0.90508625 0.62816768 0.81284153 -0.14134888 0.25283250 0.00236341  0.00000000
H 0.91966496 0.75394669 0.81233536 0.14527384 -0.37728689 -0.00662008  0.00000000
H 0.74969566 0.57886099 0.93990569 -0.30119225 0.35023009 0.05728658  0.00000000
H 0.75030434 0.92113901 0.06009431 0.30114850 -0.35021409 -0.05729794  0.00000000
H 0.75030434 0.92113901 0.56009431 0.30115309 -0.35020125 -0.05728507  0.00000000
H 0.65964732 0.74790759 0.31474919 0.28253240 0.34974994 0.05874128  0.00000000
H 0.87816269 0.65508595 0.06284195 0.29151663 0.00374241 0.00224668  0.00000000
H 0.50395157 0.66966601 0.06233513 -0.40118366 -0.06267130 -0.00673522  0.00000000
H 0.99790419 0.90964366 0.06474913 0.16258149 0.42055525 0.05877208  0.00000000
H 0.60779336 0.53675026 0.06906556 -0.18892778 -0.31024084 0.05629621  0.00000000
H 0.82886229 0.99969510 0.18990567 0.45335307 -0.08610819 0.05720411  0.00000000
H 0.94311225 0.98969709 0.19408261 -0.36546836 -0.00389593 0.04878880  0.00000000
H 0.59491375 0.87183232 0.18715847 0.14135563 -0.25282598 -0.00235303  0.00000000
H 0.58033504 0.74605331 0.18766464 -0.14524510 0.37724657 0.00661991  0.00000000
H 0.84035268 0.75209241 0.18525081 -0.28251911 -0.34973693 -0.05873238  0.00000000
H 0.78674595 0.85778946 0.31906561 -0.17371175 -0.31732848 0.05638012  0.00000000
H 0.71325405 0.64221054 0.18093439 0.17371353 0.31732944 -0.05637565  0.00000000
H 0.73969734 0.69311454 0.44408273 0.17935766 -0.31928183 0.04882076  0.00000000
H 0.62183731 0.84491405 0.43715805 -0.29156231 -0.00377001 -0.00224407  0.00000000
H 0.99604843 0.83033399 0.43766487 0.40116851 0.06266834 0.00671227  0.00000000
H 0.50209581 0.59035634 0.43525087 -0.16257365 -0.42054501 -0.05877424  0.00000000
H 0.89220664 0.96324974 0.43093444 0.18892792 0.31021291 -0.05628673  0.00000000
H 0.67113771 0.50030490 0.31009433 -0.45333162 0.08611092 -0.05719486  0.00000000
H 0.55688775 0.51030291 0.30591739 0.36546420 0.00390843 -0.04880162  0.00000000
H 0.90508625 0.62816768 0.31284153 -0.14137719 0.25285080 0.00236728  0.00000000
H 0.91966496 0.75394669 0.31233536 0.14523691 -0.37726023 -0.00660948  0.00000000
H 0.74969566 0.57886099 0.43990569 -0.30116605 0.35023295 0.05729500  0.00000000
H 0.75030434 0.42113901 0.06009431 0.30115165 -0.35022062 -0.05730145  0.00000000
H 0.28674595 0.85778946 0.81906561 -0.17374527 -0.31740134 0.05637804  0.00000000
H 0.15964732 0.74790759 0.81474919 0.28256027 0.34972068 0.05874457  0.00000000
H 0.26030266 0.30688546 0.55591727 -0.17934885 0.31926580 -0.04882423  0.00000000
H 0.37816269 0.15508595 0.56284195 0.29152075 0.00375966 0.00223668  0.00000000
H 0.00395157 0.16966601 0.56233513 -0.40116200 -0.06266826 -0.00674003  0.00000000
H 0.49790419 0.40964366 0.56474913 0.16260813 0.42057976 0.05877806  0.00000000
H 0.10779336 0.03675026 0.56906556 -0.18894298 -0.31024854 0.05628715  0.00000000
H 0.32886229 0.49969510 0.68990567 0.45332506 -0.08608459 0.05720521  0.00000000
H 0.44311225 0.48969709 0.69408261 -0.36544024 -0.00389326 0.04880972  0.00000000
H 0.09491375 0.37183232 0.68715847 0.14138064 -0.25287713 -0.00236370  0.00000000
H 0.08033504 0.24605331 0.68766464 -0.14523495 0.37730685 0.00663093  0.00000000
H 0.25030434 0.42113901 0.56009431 0.30116627 -0.35025257 -0.05730600  0.00000000
H 0.34035268 0.25209241 0.68525081 -0.28253992 -0.34975296 -0.05873762  0.00000000
H 0.24969566 0.07886099 0.93990569 -0.30118189 0.35025484 0.05731827  0.00000000
H 0.23969734 0.19311454 0.94408273 0.17933721 -0.31928563 0.04884043  0.00000000
H 0.12183731 0.34491405 0.93715805 -0.29149521 -0.00374444 -0.00224290  0.00000000
H 0.49604843 0.33033399 0.93766487 0.40118150 0.06267883 0.00671965  0.00000000
H 0.00209581 0.09035634 0.93525087 -0.16257662 -0.42054436 -0.05876803  0.00000000
H 0.39220664 0.46324974 0.93093444 0.18892899 0.31018612 -0.05629938  0.00000000
H 0.17113771 0.00030490 0.81009433 -0.45329622 0.08609924 -0.05720120  0.00000000
H 0.05688775 0.01030291 0.80591739 0.36543048 0.00390909 -0.04880454  0.00000000
H 0.40508625 0.12816768 0.81284153 -0.14136309 0.25281455 0.00235110  0.00000000
H 0.21325405 0.14221054 0.68093439 0.17372093 0.31734898 -0.05636165  0.00000000
H 0.41966496 0.25394669 0.81233536 0.14525134 -0.37725776 -0.00662570  0.00000000
H 0.28674595 0.35778946 0.31906561 -0.17373378 -0.31736030 0.05638205  0.00000000
H 0.41966496 0.25394669 0.31233536 0.14524802 -0.37727875 -0.00663551  0.00000000
H 0.26030266 0.30688546 0.05591727 -0.17930371 0.31922980 -0.04880257  0.00000000
H 0.37816269 0.15508595 0.06284195 0.29150131 0.00372791 0.00224874  0.00000000
H 0.00395157 0.16966601 0.06233513 -0.40117212 -0.06267659 -0.00671344  0.00000000
H 0.49790419 0.40964366 0.06474913 0.16257621 0.42054444 0.05879213  0.00000000
H 0.10779336 0.03675026 0.06906556 -0.18893030 -0.31020554 0.05628464  0.00000000
H 0.32886229 0.49969510 0.18990567 0.45332811 -0.08607093 0.05721395  0.00000000
H 0.44311225 0.48969709 0.19408261 -0.36543830 -0.00387278 0.04881922  0.00000000
H 0.09491375 0.37183232 0.18715847 0.14138729 -0.25281611 -0.00236276  0.00000000
H 0.08033504 0.24605331 0.18766464 -0.14523840 0.37727482 0.00663143  0.00000000
H 0.15964732 0.24790759 0.31474919 0.28254488 0.34974790 0.05874633  0.00000000
H 0.34035268 0.25209241 0.18525081 -0.28255462 -0.34975574 -0.05875868  0.00000000
H 0.24969566 0.07886099 0.43990569 -0.30116101 0.35020389 0.05729440  0.00000000
H 0.23969734 0.19311454 0.44408273 0.17932426 -0.31923963 0.04881360  0.00000000
H 0.12183731 0.34491405 0.43715805 -0.29147583 -0.00374804 -0.00223099  0.00000000
H 0.49604843 0.33033399 0.43766487 0.40118694 0.06266936 0.00671173  0.00000000
H 0.00209581 0.09035634 0.43525087 -0.16258270 -0.42053982 -0.05877405  0.00000000
H 0.39220664 0.46324974 0.43093444 0.18890633 0.31022390 -0.05629383  0.00000000
H 0.17113771 0.00030490 0.31009433 -0.45334596 0.08608851 -0.05720632  0.00000000
H 0.05688775 0.01030291 0.30591739 0.36547676 0.00388389 -0.04881914  0.00000000
H 0.40508625 0.12816768 0.31284153 -0.14137926 0.25284545 0.00235826  0.00000000
H 0.21325405 0.14221054 0.18093439 0.17375738 0.31739762 -0.05639525  0.00000000
H 0.15964732 0.24790759 0.81474919 0.28256523 0.34975464 0.05874733  0.00000000
H 0.28674595 0.35778946 0.81906561 -0.17372933 -0.31733938 0.05636461  0.00000000
H 0.25030434 0.92113901 0.06009431 0.30117283 -0.35021040 -0.05729450  0.00000000
H 0.37816269 0.65508595 0.56284195 0.29150629 0.00376956 0.00227031  0.00000000
H 0.00395157 0.66966601 0.56233513 -0.40117486 -0.06267603 -0.00672375  0.00000000
H 0.49790419 0.90964366 0.56474913 0.16259441 0.42058190 0.05877525  0.00000000
H 0.10779336 0.53675026 0.56906556 -0.18892623 -0.31021099 0.05628343  0.00000000
H 0.32886229 0.99969510 0.68990567 0.45333921 -0.08610442 0.05720634  0.00000000
H 0.44311225 0.98969709 0.69408261 -0.36543693 -0.00388769 0.04882619  0.00000000
H 0.09491375 0.87183232 0.68715847 0.14136481 -0.25285400 -0.00234861  0.00000000
H 0.08033504 0.74605331 0.68766464 -0.14525659 0.37728149 0.00664129  0.00000000
H 0.34035268 0.75209241 0.68525081 -0.28253941 -0.34973536 -0.05873112  0.00000000
H 0.26030266 0.80688546 0.55591727 -0.17931646 0.31923353 -0.04882170  0.00000000
H 0.21325405 0.64221054 0.68093439 0.17371552 0.31734857 -0.05636507  0.00000000
H 0.23969734 0.69311454 0.94408273 0.17932567 -0.31926246 0.04880909  0.00000000
H 0.12183731 0.84491405 0.93715805 -0.29150124 -0.00372900 -0.00222951  0.00000000
H 0.49604843 0.83033399 0.93766487 0.40118472 0.06266275 0.00672638  0.00000000
H 0.00209581 0.59035634 0.93525087 -0.16257755 -0.42055517 -0.05876419  0.00000000
H 0.39220664 0.96324974 0.93093444 0.18894704 0.31023941 -0.05628860  0.00000000
H 0.17113771 0.50030490 0.81009433 -0.45335099 0.08609780 -0.05721056  0.00000000
H 0.05688775 0.51030291 0.80591739 0.36549899 0.00388417 -0.04879917  0.00000000
H 0.40508625 0.62816768 0.81284153 -0.14132847 0.25284243 0.00234952  0.00000000
H 0.41966496 0.75394669 0.81233536 0.14527500 -0.37730526 -0.00662819  0.00000000
H 0.24969566 0.57886099 0.93990569 -0.30116939 0.35025437 0.05729108  0.00000000
H 0.25030434 0.92113901 0.56009431 0.30116315 -0.35022212 -0.05729273  0.00000000
H 0.28674595 0.85778946 0.31906561 -0.17372656 -0.31737731 0.05636833  0.00000000
H 0.15964732 0.74790759 0.31474919 0.28255706 0.34975531 0.05873933  0.00000000
H 0.26030266 0.80688546 0.05591727 -0.17931754 0.31925498 -0.04881315  0.00000000
H 0.37816269 0.65508595 0.06284195 0.29148047 0.00375814 0.00222966  0.00000000
H 0.00395157 0.66966601 0.06233513 -0.40115752 -0.06267919 -0.00671761  0.00000000
H 0.49790419 0.90964366 0.06474913 0.16257751 0.42054493 0.05877591  0.00000000
H 0.10779336 0.53675026 0.06906556 -0.18892588 -0.31019026 0.05629102  0.00000000
H 0.32886229 0.99969510 0.18990567 0.45332449 -0.08608677 0.05721571  0.00000000
H 0.44311225 0.98969709 0.19408261 -0.36542071 -0.00387673 0.04882391  0.00000000
H 0.09491375 0.87183232 0.18715847 0.14137700 -0.25280701 -0.00236641  0.00000000
H 0.08033504 0.74605331 0.18766464 -0.14522115 0.37725156 0.00661133  0.00000000
H 0.34035268 0.75209241 0.18525081 -0.28254180 -0.34973506 -0.05874605  0.00000000
H 0.21325405 0.64221054 0.18093439 0.17373504 0.31736195 -0.05638388  0.00000000
H 0.24969566 0.57886099 0.43990569 -0.30115122 0.35020290 0.05729289  0.00000000
H 0.23969734 0.69311454 0.44408273 0.17931026 -0.31923989 0.04881381  0.00000000
H 0.12183731 0.84491405 0.43715805 -0.29151324 -0.00374813 -0.00225105  0.00000000
H 0.49604843 0.83033399 0.43766487 0.40119223 0.06267019 0.00671293  0.00000000
H 0.00209581 0.59035634 0.43525087 -0.16258963 -0.42052745 -0.05879822  0.00000000
H 0.39220664 0.96324974 0.43093444 0.18891779 0.31018809 -0.05628202  0.00000000
H 0.17113771 0.50030490 0.31009433 -0.45332860 0.08610685 -0.05722666  0.00000000
H 0.05688775 0.51030291 0.30591739 0.36545660 0.00389407 -0.04882350  0.00000000
H 0.40508625 0.62816768 0.31284153 -0.14139228 0.25286134 0.00236050  0.00000000
H 0.41966496 0.75394669 0.31233536 0.14524458 -0.37727194 -0.00662580  0.00000000
H 0.65964732 0.74790759 0.81474919 0.28254958 0.34975001 0.05876618  0.00000000
H 0.78674595 0.85778946 0.81906561 -0.17377139 -0.31737485 0.05638859  0.00000000
192
Lattice="6.22321522 0.00000000 0.00000000 -3.10548432 5.39298588 0.00000000 0.00000000 0.00000000 11.09719400 " Properties=species:S:1:pos:R:3:forces:R:3:energies:R:1 energy=-431.08665028 pbc="T T T"
H 0.25045862 0.42051241 0.06004451 0.17180818 -0.17917758 -0.05154581  0.00000000
H 0.87861808 0.15509268 0.56284389 0.10062201 -0.00613698 0.00334902  0.00000000
H 0.50327369 0.16955389 0.56232927 -0.22847028 -0.03470059 -0.00819171  0.00000000
H 0.99853172 0.41039605 0.56480023 0.09113159 0.22351373 0.05309717  0.00000000
H 0.60722339 0.03619517 0.56911450 -0.08664268 -0.10308237 0.07993897  0.00000000
H 0.82948824 0.49954109 0.68995541 0.24075080 -0.05943297 0.05149705  0.00000000
H 0.94254220 0.48969013 0.69412506 -0.13086286 -0.00685614 0.07282531  0.00000000
H 0.59490719 0.37137993 0.68715642 0.05517161 -0.08342354 -0.00341265  0.00000000
H 0.58044667 0.24672830 0.68767040 -0.08364243 0.21456826 0.00817462  0.00000000
H 0.83960242 0.25146672 0.68519975 -0.14784967 -0.19007126 -0.05307331  0.00000000
H 0.76030966 0.30745663 0.55587484 -0.05950937 0.11716089 -0.07283872  0.00000000
H 0.71380667 0.14277823 0.68088536 0.04572193 0.12606873 -0.07997504  0.00000000
H 0.73969032 0.19254334 0.94412517 0.05950583 -0.11714952 0.07283600  0.00000000
H 0.62138197 0.34490735 0.93715610 -0.10064681 0.00612079 -0.00334293  0.00000000
H 0.99672637 0.33044611 0.93767071 0.22842532 0.03470878 0.00821330  0.00000000
H 0.50146833 0.08960397 0.93519977 -0.09112964 -0.22349968 -0.05309697  0.00000000
H 0.89277653 0.46380473 0.93088550 0.08667562 0.10312482 -0.07994447  0.00000000
H 0.67051165 0.00045888 0.81004458 -0.24070182 0.05944185 -0.05146416  0.00000000
H 0.55745783 0.01030983 0.80587496 0.13081255 0.00688363 -0.07284225  0.00000000
H 0.90509279 0.12862001 0.81284357 -0.05516585 0.08343819 0.00341731  0.00000000
H 0.91955334 0.25327168 0.81232961 0.08365499 -0.21455561 -0.00818239  0.00000000
H 0.74954137 0.07948758 0.93995548 -0.17179837 0.17916849 0.05155157  0.00000000
H 0.66039768 0.24853339 0.81480025 0.14780632 0.18996785 0.05306221  0.00000000
H 0.75045859 0.42051243 0.56004452 0.17182092 -0.17917978 -0.05154988  0.00000000
H 0.66039761 0.24853334 0.31480026 0.14784010 0.19000571 0.05305741  0.00000000
H 0.87861799 0.15509265 0.06284391 0.10063659 -0.00612205 0.00334629  0.00000000
H 0.50327364 0.16955387 0.06232929 -0.22848114 -0.03468454 -0.00821267  0.00000000
H 0.99853168 0.41039602 0.06480024 0.09112127 0.22348634 0.05310210  0.00000000
H 0.60722347 0.03619522 0.06911451 -0.08670117 -0.10313525 0.07992425  0.00000000
H 0.82948827 0.49954109 0.18995539 0.24074187 -0.05943127 0.05149917  0.00000000
H 0.94254216 0.48969008 0.19412503 -0.13083775 -0.00684195 0.07285290  0.00000000
H 0.59490720 0.37137995 0.18715643 0.05514402 -0.08342826 -0.00342267  0.00000000
H 0.58044665 0.24672832 0.18767039 -0.08363183 0.21455012 0.00818547  0.00000000
H 0.83960241 0.25146675 0.18519973 -0.14783570 -0.19006183 -0.05305863  0.00000000
H 0.78619323 0.35722162 0.31911462 -0.04571642 -0.12601638 0.07998123  0.00000000
H 0.71380669 0.14277828 0.18088537 0.04570331 0.12606771 -0.07997701  0.00000000
H 0.73969037 0.19254331 0.44412518 0.05946689 -0.11712787 0.07281526  0.00000000
H 0.62138195 0.34490735 0.43715610 -0.10062496 0.00611879 -0.00338163  0.00000000
H 0.99672634 0.33044609 0.43767072 0.22847388 0.03470613 0.00821633  0.00000000
H 0.50146830 0.08960394 0.43519977 -0.09113414 -0.22351507 -0.05310268  0.00000000
H 0.89277651 0.46380476 0.43088550 0.08669482 0.10313944 -0.07993080  0.00000000
H 0.67051172 0.00045894 0.31004460 -0.24073787 0.05942965 -0.05150184  0.00000000
H 0.55745777 0.01030986 0.30587496 0.13087100 0.00687536 -0.07285320  0.00000000
H 0.90509283 0.12862002 0.31284358 -0.05520714 0.08345948 0.00340602  0.00000000
H 0.91955336 0.25327176 0.31232960 0.08364869 -0.21458431 -0.00818003  0.00000000
H 0.74954140 0.07948757 0.43995551 -0.17177751 0.17912950 0.05152407  0.00000000
H 0.76030963 0.30745661 0.05587481 -0.05948962 0.11715619 -0.07278794  0.00000000
H 0.78619318 0.35722162 0.81911461 -0.04568532 -0.12600679 0.08000226  0.00000000
H 0.76030964 0.80745663 0.05587482 -0.05949265 0.11715010 -0.07282873  0.00000000
H 0.87861803 0.65509268 0.56284389 0.10064020 -0.00613465 0.00336084  0.00000000
H 0.50327370 0.66955392 0.56232930 -0.22850923 -0.03473534 -0.00822664  0.00000000
H 0.99853175 0.91039612 0.56480024 0.09112109 0.22347108 0.05308214  0.00000000
H 0.60722341 0.53619515 0.56911450 -0.08666601 -0.10302930 0.07994675  0.00000000
H 0.82948831 0.99954111 0.68995541 0.24071217 -0.05942312 0.05147388  0.00000000
H 0.94254218 0.98969013 0.69412506 -0.13085012 -0.00685786 0.07281365  0.00000000
H 0.59490714 0.87137990 0.68715642 0.05519937 -0.08339526 -0.00340974  0.00000000
H 0.58044662 0.74672834 0.68767041 -0.08360303 0.21453946 0.00816873  0.00000000
H 0.83960238 0.75146668 0.68519973 -0.14782767 -0.19001324 -0.05305210  0.00000000
H 0.76030961 0.80745656 0.55587481 -0.05951079 0.11719094 -0.07281760  0.00000000
H 0.71380681 0.64277834 0.68088538 0.04569028 0.12602604 -0.07997855  0.00000000
H 0.73969031 0.69254338 0.94412517 0.05952145 -0.11717123 0.07281590  0.00000000
H 0.62138198 0.84490735 0.93715611 -0.10065793 0.00613583 -0.00337232  0.00000000
H 0.99672633 0.83044611 0.93767072 0.22847201 0.03473944 0.00820972  0.00000000
H 0.50146833 0.58960397 0.93519975 -0.09113465 -0.22350419 -0.05309316  0.00000000
H 0.89277648 0.96380472 0.93088550 0.08669016 0.10313743 -0.07993607  0.00000000
H 0.67051167 0.50045891 0.81004457 -0.24067182 0.05943100 -0.05147765  0.00000000
H 0.55745788 0.51030988 0.80587494 0.13079512 0.00686385 -0.07282387  0.00000000
H 0.90509283 0.62862002 0.81284358 -0.05518827 0.08345284 0.00340417  0.00000000
H 0.91955336 0.75327169 0.81232961 0.08365080 -0.21456984 -0.00819846  0.00000000
H 0.74954137 0.57948759 0.93995549 -0.17181329 0.17918440 0.05153758  0.00000000
H 0.75045858 0.92051245 0.06004449 0.17183036 -0.17915409 -0.05153475  0.00000000
H 0.75045859 0.92051247 0.56004451 0.17184386 -0.17919594 -0.05154459  0.00000000
H 0.66039761 0.74853333 0.31480026 0.14784776 0.19003220 0.05306217  0.00000000
H 0.87861800 0.65509265 0.06284390 0.10061570 -0.00611556 0.00335386  0.00000000
H 0.50327362 0.66955389 0.06232927 -0.22844037 -0.03470577 -0.00819910  0.00000000
H 0.99853172 0.91039607 0.06480023 0.09113362 0.22348308 0.05309657  0.00000000
H 0.60722347 0.53619521 0.06911451 -0.08670453 -0.10312685 0.07992472  0.00000000
H 0.82948829 0.99954105 0.18995540 0.24068852 -0.05939990 0.05148882  0.00000000
H 0.94254215 0.98969012 0.19412503 -0.13080870 -0.00687562 0.07286047  0.00000000
H 0.59490719 0.87138000 0.18715642 0.05521167 -0.08348076 -0.00341707  0.00000000
H 0.58044665 0.74672824 0.18767039 -0.08367095 0.21463011 0.00818187  0.00000000
H 0.83960242 0.75146670 0.18519975 -0.14787550 -0.19002870 -0.05308022  0.00000000
H 0.78619332 0.85722173 0.31911463 -0.04573040 -0.12607577 0.07997957  0.00000000
H 0.71380669 0.64277827 0.18088538 0.04572345 0.12607020 -0.07998067  0.00000000
H 0.73969037 0.69254332 0.44412518 0.05948384 -0.11714273 0.07281167  0.00000000
H 0.62138190 0.84490731 0.43715610 -0.10062221 0.00614969 -0.00336966  0.00000000
H 0.99672635 0.83044611 0.43767070 0.22843001 0.03470435 0.00822172  0.00000000
H 0.50146830 0.58960395 0.43519976 -0.09111529 -0.22348815 -0.05308931  0.00000000
H 0.89277650 0.96380475 0.43088550 0.08670407 0.10314013 -0.07992808  0.00000000
H 0.67051174 0.50045896 0.31004460 -0.24074761 0.05941369 -0.05150441  0.00000000
H 0.55745785 0.51030990 0.30587496 0.13087423 0.00685676 -0.07283607  0.00000000
H 0.90509280 0.62862005 0.31284359 -0.05518298 0.08347132 0.00340357  0.00000000
H 0.91955332 0.75327174 0.31232962 0.08365164 -0.21460878 -0.00818543  0.00000000
H 0.74954141 0.57948759 0.43995550 -0.17181377 0.17915693 0.05153227  0.00000000
H 0.75045857 0.42051244 0.06004449 0.17183509 -0.17917783 -0.05151980  0.00000000
H 0.28619320 0.85722160 0.81911462 -0.04568456 -0.12599869 0.07997266  0.00000000
H 0.16039762 0.74853328 0.81480026 0.14778348 0.18998614 0.05306286  0.00000000
H 0.26030963 0.30745665 0.55587482 -0.05948111 0.11715562 -0.07281681  0.00000000
H 0.37861802 0.15509268 0.56284389 0.10067229 -0.00612641 0.00337016  0.00000000
H 0.00327366 0.16955389 0.56232927 -0.22842542 -0.03471258 -0.00820737  0.00000000
H 0.49853179 0.41039612 0.56480024 0.09108446 0.22342837 0.05309091  0.00000000
H 0.10722344 0.03619520 0.56911450 -0.08669576 -0.10310773 0.07993698  0.00000000
H 0.32948827 0.49954109 0.68995540 0.24075492 -0.05943263 0.05149420  0.00000000
H 0.44254220 0.48969013 0.69412505 -0.13086665 -0.00686958 0.07284722  0.00000000
H 0.09490718 0.37137990 0.68715641 0.05517072 -0.08341723 -0.00340535  0.00000000
H 0.08044672 0.24672835 0.68767040 -0.08366943 0.21452362 0.00818637  0.00000000
H 0.25045857 0.42051238 0.56004449 0.17180999 -0.17914433 -0.05152253  0.00000000
H 0.33960238 0.25146667 0.68519974 -0.14781506 -0.19000722 -0.05305616  0.00000000
H 0.24954141 0.07948763 0.93995552 -0.17181544 0.17915357 0.05150555  0.00000000
H 0.23969034 0.19254332 0.94412520 0.05951536 -0.11714007 0.07280235  0.00000000
H 0.12138203 0.34490735 0.93715610 -0.10061977 0.00612017 -0.00335785  0.00000000
H 0.49672638 0.33044613 0.93767071 0.22845124 0.03469661 0.00821587  0.00000000
H 0.00146829 0.08960395 0.93519977 -0.09114049 -0.22350990 -0.05309766  0.00000000
H 0.39277648 0.46380470 0.93088549 0.08669092 0.10312445 -0.07994645  0.00000000
H 0.17051178 0.00045894 0.81004460 -0.24077716 0.05941710 -0.05150374  0.00000000
H 0.05745780 0.01030990 0.80587496 0.13089977 0.00684067 -0.07283536  0.00000000
H 0.40509279 0.12861999 0.81284357 -0.05518618 0.08346239 0.00342483  0.00000000
H 0.21380671 0.14277831 0.68088539 0.04570658 0.12604118 -0.07999429  0.00000000
H 0.41955335 0.25327174 0.81232960 0.08365652 -0.21458812 -0.00817168  0.00000000
H 0.28619325 0.35722168 0.31911463 -0.04568821 -0.12602325 0.07998501  0.00000000
H 0.41955333 0.25327170 0.31232959 0.08365020 -0.21456730 -0.00816600  0.00000000
H 0.26030966 0.30745659 0.05587484 -0.05952655 0.11719086 -0.07282774  0.00000000
H 0.37861797 0.15509262 0.06284390 0.10068234 -0.00610854 0.00335932  0.00000000
H 0.00327363 0.16955388 0.06232929 -0.22845057 -0.03470710 -0.00822509  0.00000000
H 0.49853171 0.41039605 0.06480025 0.09113281 0.22351077 0.05307437  0.00000000
H 0.10722350 0.03619527 0.06911450 -0.08669505 -0.10313185 0.07993808  0.00000000
H 0.32948829 0.49954111 0.18995541 0.24078351 -0.05945230 0.05148900  0.00000000
H 0.44254222 0.48969016 0.19412505 -0.13089204 -0.00688621 0.07283531  0.00000000
H 0.09490725 0.37138001 0.18715642 0.05514558 -0.08346790 -0.00341595  0.00000000
H 0.08044668 0.24672829 0.18767040 -0.08367125 0.21459337 0.00817671  0.00000000
H 0.16039763 0.24853333 0.31480026 0.14780913 0.19002250 0.05305855  0.00000000
H 0.33960235 0.25146666 0.18519973 -0.14779702 -0.18997696 -0.05304715  0.00000000
H 0.24954139 0.07948754 0.43995550 -0.17183335 0.17919296 0.05153132  0.00000000
H 0.23969036 0.19254340 0.44412517 0.05951396 -0.11716704 0.07282405  0.00000000
H 0.12138205 0.34490735 0.43715611 -0.10067418 0.00612378 -0.00337153  0.00000000
H 0.49672638 0.33044611 0.43767070 0.22844563 0.03471252 0.00820723  0.00000000
H 0.00146829 0.08960396 0.43519976 -0.09114189 -0.22352564 -0.05308353  0.00000000
H 0.39277648 0.46380476 0.43088549 0.08670343 0.10309400 -0.07994224  0.00000000
H 0.17051170 0.00045892 0.31004459 -0.24074221 0.05941710 -0.05148094  0.00000000
H 0.05745785 0.01030986 0.30587494 0.13084490 0.00686031 -0.07282162  0.00000000
H 0.40509279 0.12862004 0.31284358 -0.05517850 0.08345898 0.00341359  0.00000000
H 0.21380681 0.14277839 0.18088536 0.04568031 0.12599449 -0.07997544  0.00000000
H 0.16039766 0.24853334 0.81480026 0.14779490 0.19001848 0.05305384  0.00000000
H 0.28619328 0.35722171 0.81911461 -0.04569345 -0.12603140 0.07999795  0.00000000
H 0.25045862 0.92051245 0.06004450 0.17181654 -0.17917268 -0.05152677  0.00000000
H 0.37861801 0.65509269 0.56284392 0.10070266 -0.00613428 0.00333529  0.00000000
H 0.00327363 0.66955388 0.56232928 -0.22844247 -0.03469756 -0.00821848  0.00000000
H 0.49853177 0.91039612 0.56480024 0.09109504 0.22346410 0.05310062  0.00000000
H 0.10722350 0.53619526 0.56911450 -0.08669786 -0.10313832 0.07993639  0.00000000
H 0.32948828 0.99954105 0.68995540 0.24073578 -0.05940960 0.05149845  0.00000000
H 0.44254221 0.98969014 0.69412506 -0.13082958 -0.00687289 0.07282966  0.00000000
H 0.09490718 0.87137995 0.68715643 0.05517796 -0.08346840 -0.00341062  0.00000000
H 0.08044666 0.74672831 0.68767041 -0.08365004 0.21457816 0.00817045  0.00000000
H 0.33960239 0.75146670 0.68519975 -0.14785083 -0.19003081 -0.05307278  0.00000000
H 0.26030965 0.80745660 0.55587482 -0.05949215 0.11716035 -0.07282070  0.00000000
H 0.21380671 0.64277831 0.68088539 0.04572735 0.12603972 -0.07999698  0.00000000
H 0.23969034 0.69254336 0.94412517 0.05950493 -0.11712636 0.07283239  0.00000000
H 0.12138203 0.84490738 0.93715612 -0.10066881 0.00611303 -0.00337660  0.00000000
H 0.49672637 0.83044610 0.93767072 0.22845271 0.03471218 0.00821049  0.00000000
H 0.00146828 0.58960393 0.93519977 -0.09113965 -0.22349880 -0.05310053  0.00000000
H 0.39277656 0.96380479 0.93088550 0.08667919 0.10311467 -0.07992421  0.00000000
H 0.17051170 0.50045894 0.81004459 -0.24068571 0.05941370 -0.05147901  0.00000000
H 0.05745788 0.51030986 0.80587496 0.13080759 0.00687426 -0.07285465  0.00000000
H 0.40509287 0.62862004 0.81284357 -0.05522666 0.08344534 0.00342664  0.00000000
H 0.41955334 0.75327166 0.81232960 0.08363559 -0.21459128 -0.00818036  0.00000000
H 0.24954143 0.57948763 0.93995550 -0.17181749 0.17914521 0.05153988  0.00000000
H 0.25045859 0.92051243 0.56004450 0.17182378 -0.17916443 -0.05153791  0.00000000
H 0.28619325 0.85722165 0.31911462 -0.04569779 -0.12598690 0.07998250  0.00000000
H 0.16039765 0.74853334 0.31480026 0.14779699 0.18998115 0.05306479  0.00000000
H 0.26030967 0.80745663 0.05587483 -0.05949156 0.11716229 -0.07283206  0.00000000
H 0.37861796 0.65509267 0.06284388 0.10063900 -0.00615112 0.00337129  0.00000000