1
Lattice="6.22321522 0.00000000 0.00000000 -3.10548432 5.39298588 0.00000000 0.00000000 0.00000000 11.09719400 " Properties=species:S:1:pos:R:3:forces:R:3:energies:R:1 energy=3.21 free_Energie=3.21 pbc="T T T"
H        0.00000000       0.00000000       0.00000000       0.00000000       0.00000000       0.00000000       -3.21000000
