192
Lattice="6.22321522 0.0 0.0 -3.10548432 5.39298588 0.0 0.0 0.0 11.097194" Properties=species:S:1:pos:R:3:forces:R:3:energies:R:1 energy=-431.46311821 pbc="T T T"
H        0.23714185       0.40784532       0.05462717       0.15519528      -0.13818016       0.05416828       0.00000000
H        0.87143035       0.13152779       0.57182965       0.35107859       0.05449722      -0.01992658       0.00000000
H        0.50311246       0.17740561       0.55507423      -0.26737389      -0.06219193       0.05810477       0.00000000
H        0.00808566       0.41063046       0.56745946       0.10085095       0.16352761       0.03066464       0.00000000
H        0.59080141       0.04559352       0.57927026      -0.04338060      -0.19289831      -0.11882035       0.00000000
H        0.84215484       0.51284766       0.69536702       0.19599710      -0.06486778      -0.05431975       0.00000000
H        0.92635355       0.46147636       0.70323483      -0.23963548       0.10133207      -0.04033259       0.00000000
H        0.61846408       0.37856746       0.67817540       0.12766266      -0.33044354       0.01964770       0.00000000
H        0.57260318       0.24689137       0.69492846      -0.07955031       0.26191959      -0.05788785       0.00000000
H        0.83936438       0.24191365       0.68253728      -0.09021646      -0.16826194      -0.03036538       0.00000000
H        0.78852745       0.32364633       0.54675773      -0.20842843       0.15805136       0.04029624       0.00000000
H        0.70441661       0.15919912       0.67072663       0.14434396       0.13266545       0.11840503       0.00000000
H        0.71147453       0.17635691       0.95324073       0.20877445      -0.15834059      -0.04039124       0.00000000
H        0.62857233       0.36847226       0.92817646      -0.35090292      -0.05443509       0.01985852       0.00000000
H        0.99688203       0.32258954       0.94492355       0.26743183       0.06213208      -0.05818356       0.00000000
H        0.49191893       0.08937076       0.93254061      -0.10084023      -0.16375865      -0.03060021       0.00000000
H        0.90920546       0.45441212       0.92072863       0.04343186       0.19298092       0.11879244       0.00000000
H        0.65784956       0.98716235       0.80463374      -0.19562400       0.06483404       0.05437813       0.00000000
H        0.57363762       0.03851276       0.79675629       0.23917955      -0.10111540       0.04026773       0.00000000
H        0.88153802       0.12142943       0.82182151      -0.12767769       0.33071040      -0.01967014       0.00000000
H        0.92739095       0.25310697       0.80507338       0.07955402      -0.26215120       0.05793641       0.00000000
H        0.76285079       0.09215060       0.94537307      -0.15561533       0.13848201      -0.05409602       0.00000000
H        0.66063912       0.25807965       0.81746312       0.09027129       0.16823105       0.03046353       0.00000000
H        0.73714523       0.40784426       0.55462861       0.15525589      -0.13815601       0.05410829       0.00000000
H        0.66063855       0.25808037       0.31746460       0.09033231       0.16828910       0.03051559       0.00000000
H        0.87142697       0.13152597       0.07182753       0.35100794       0.05446489      -0.01987114       0.00000000
H        0.50311599       0.17741183       0.05507640      -0.26762421      -0.06230105       0.05805970       0.00000000
H        0.00809007       0.41062627       0.06746285       0.10082581       0.16367448       0.03063369       0.00000000
H        0.59079478       0.04558847       0.07926571      -0.04335746      -0.19292010      -0.11879611       0.00000000
H        0.84215063       0.51284585       0.19537587       0.19557873      -0.06475138      -0.05442424       0.00000000
H        0.92635304       0.46147829       0.20322822      -0.23919970       0.10114762      -0.04026518       0.00000000
H        0.61845862       0.37856181       0.17817165       0.12760176      -0.33036151       0.01970779       0.00000000
H        0.57260515       0.24689136       0.19493056      -0.07961779       0.26182383      -0.05785036       0.00000000
H        0.83936004       0.24190680       0.18254702      -0.09036260      -0.16838892      -0.03049693       0.00000000
H        0.79558641       0.34081098       0.32927135      -0.14444137      -0.13280102      -0.11838886       0.00000000
H        0.70441789       0.15920077       0.17071573       0.14459420       0.13279161       0.11836536       0.00000000
H        0.71147217       0.17635419       0.45323519       0.20867932      -0.15821487      -0.04030221       0.00000000
H        0.62857210       0.36847430       0.42817703      -0.35110124      -0.05448871       0.01989841       0.00000000
H        0.99688557       0.32259455       0.44492518       0.26741279       0.06219686      -0.05824185       0.00000000
H        0.49191509       0.08937062       0.43254045      -0.10080211      -0.16376191      -0.03064302       0.00000000
H        0.90919888       0.45441003       0.42072854       0.04342266       0.19304398       0.11876729       0.00000000
H        0.65784580       0.98716216       0.30463964      -0.19576469       0.06476271       0.05436387       0.00000000
H        0.57364035       0.03851789       0.29675230       0.23933038      -0.10128011       0.04028012       0.00000000
H        0.88153473       0.12142712       0.32181635      -0.12760545       0.33037046      -0.01962185       0.00000000
H        0.92739813       0.25310992       0.30507767       0.07954220      -0.26182146       0.05784107       0.00000000
H        0.76285406       0.09215233       0.44537474      -0.15544707       0.13833578      -0.05413502       0.00000000
H        0.78853203       0.32365123       0.04675998      -0.20847865       0.15818775       0.04032020       0.00000000
H        0.79558350       0.34081333       0.82927351      -0.14438709      -0.13275510      -0.11837379       0.00000000
H        0.78852816       0.82364734       0.04675743      -0.20854487       0.15806770       0.04035071       0.00000000
H        0.87142657       0.63152567       0.57182198       0.35123056       0.05458830      -0.01995443       0.00000000
H        0.50311474       0.67740526       0.55507705      -0.26740494      -0.06219940       0.05815047       0.00000000
H        0.00809099       0.91063200       0.56745690       0.10095076       0.16382706       0.03067818       0.00000000
H        0.59080557       0.54558638       0.57927243      -0.04333771      -0.19266387      -0.11874096       0.00000000
H        0.84215387       0.01283798       0.69536566       0.19553895      -0.06472477      -0.05441278       0.00000000
H        0.92636059       0.96148281       0.70324546      -0.23908838       0.10113827      -0.04022317       0.00000000
H        0.61846843       0.87857040       0.67817864       0.12754459      -0.33052929       0.01961600       0.00000000
H        0.57260396       0.74689133       0.69492739      -0.07956169       0.26196706      -0.05794283       0.00000000
H        0.83936365       0.74191870       0.68253296      -0.09027952      -0.16831244      -0.03044607       0.00000000
H        0.78853396       0.82365179       0.54676747      -0.20863222       0.15821849       0.04033650       0.00000000
H        0.70441359       0.65919441       0.67073047       0.14445369       0.13271451       0.11844171       0.00000000
H        0.71147668       0.67635591       0.95324102       0.20866999      -0.15827573      -0.04035293       0.00000000
H        0.62857378       0.86847002       0.92817634      -0.35105044      -0.05439575       0.01984524       0.00000000
H        0.99689010       0.82260118       0.94492951       0.26764104       0.06235203      -0.05829970       0.00000000
H        0.49191873       0.58937130       0.93253761      -0.10080752      -0.16369014      -0.03067641       0.00000000
H        0.90919286       0.95441273       0.92072483       0.04343862       0.19276172       0.11875990       0.00000000
H        0.65784624       0.48715482       0.80462769      -0.19554935       0.06465018       0.05434992       0.00000000
H        0.57364473       0.53852028       0.79676455       0.23911097      -0.10122143       0.04016857       0.00000000
H        0.88153505       0.62143080       0.82182384      -0.12764830       0.33052748      -0.01963707       0.00000000
H        0.92739818       0.75310686       0.80507097       0.07962908      -0.26190772       0.05791345       0.00000000
H        0.76285247       0.59215159       0.94536857      -0.15545399       0.13836455      -0.05408442       0.00000000
H        0.73714556       0.90784344       0.05463499       0.15519606      -0.13824004       0.05414784       0.00000000
H        0.73714189       0.90784587       0.55462483       0.15540633      -0.13833491       0.05413854       0.00000000
H        0.66063678       0.75808827       0.31745743       0.09046321       0.16844147       0.03044217       0.00000000
H        0.87142766       0.63152283       0.07183176       0.35107898       0.05450141      -0.01995352       0.00000000
H        0.50310310       0.67740205       0.05506284      -0.26722153      -0.06205457       0.05822154       0.00000000
H        0.00808170       0.91062870       0.06746053       0.10088770       0.16373721       0.03068014       0.00000000
H        0.59079392       0.54559292       0.07927306      -0.04335082      -0.19294916      -0.11878878       0.00000000
H        0.84214973       0.01283666       0.19536929       0.19574021      -0.06474207      -0.05436024       0.00000000
H        0.92635872       0.96148051       0.20323920      -0.23930116       0.10128352      -0.04020538       0.00000000
H        0.61846425       0.87857459       0.17818611       0.12756009      -0.33039952       0.01962127       0.00000000
H        0.57260401       0.74689177       0.19492252      -0.07954692       0.26176257      -0.05779645       0.00000000
H        0.83936241       0.74191933       0.18253630      -0.09036557      -0.16832814      -0.03045442       0.00000000
H        0.79558225       0.84079813       0.32928015      -0.14461090      -0.13288661      -0.11843174       0.00000000
H        0.70441447       0.65919193       0.17072897       0.14439345       0.13273026       0.11838210       0.00000000
H        0.71147080       0.67635055       0.45325232       0.20871982      -0.15837783      -0.04037880       0.00000000
H        0.62857236       0.86846916       0.42817058      -0.35101066      -0.05444199       0.01986720       0.00000000
H        0.99688860       0.82259201       0.44492705       0.26714584       0.06210931      -0.05801462       0.00000000
H        0.49191468       0.58937439       0.43254049      -0.10080336      -0.16379007      -0.03062090       0.00000000
H        0.90920500       0.95441004       0.42073031       0.04334003       0.19274851       0.11875873       0.00000000
H        0.65784213       0.48714789       0.30462785      -0.19575810       0.06470914       0.05435730       0.00000000
H        0.57364630       0.53852194       0.29676721       0.23929302      -0.10124521       0.04022688       0.00000000
H        0.88153657       0.62143084       0.32182142      -0.12758865       0.33049853      -0.01959397       0.00000000
H        0.92739773       0.75310765       0.30507181       0.07955086      -0.26177582       0.05788813       0.00000000
H        0.76285698       0.59215839       0.44535931      -0.15565654       0.13842225      -0.05399214       0.00000000
H        0.73714407       0.40784566       0.05462845       0.15540313      -0.13822159       0.05408119       0.00000000
H        0.29558518       0.84080660       0.82927600      -0.14442055      -0.13270077      -0.11840133       0.00000000
H        0.16064115       0.75808181       0.81746036       0.09028397       0.16823689       0.03046014       0.00000000
H        0.28852800       0.32364907       0.54674669      -0.20864822       0.15822253       0.04036748       0.00000000
H        0.37142690       0.13152995       0.57182583       0.35092008       0.05445266      -0.01994087       0.00000000
H        0.00311414       0.17740666       0.55507135      -0.26744940      -0.06218250       0.05816012       0.00000000
H        0.50807940       0.41063039       0.56746319       0.10077080       0.16355650       0.03055088       0.00000000
H        0.09079742       0.04559107       0.57927451      -0.04329535      -0.19299235      -0.11878368       0.00000000
H        0.34216244       0.51285521       0.69536590       0.19555301      -0.06479371      -0.05439601       0.00000000
H        0.42634597       0.46147150       0.70324180      -0.23917906       0.10116782      -0.04021828       0.00000000
H        0.11847136       0.37857373       0.67818465       0.12771288      -0.33056786       0.01962932       0.00000000
H        0.07259560       0.24688718       0.69492268      -0.07954537       0.26193471      -0.05789694       0.00000000
H        0.23714653       0.40784354       0.55463941       0.15544159      -0.13831047       0.05410797       0.00000000
H        0.33936443       0.24191235       0.68254183      -0.09038290      -0.16832466      -0.03048441       0.00000000
H        0.26284570       0.09214799       0.94536708      -0.15519357       0.13819700      -0.05410739       0.00000000
H        0.21147779       0.17635585       0.95324590       0.20849493      -0.15802017      -0.04030548       0.00000000
H        0.12857125       0.36847466       0.92817445      -0.35105558      -0.05453018       0.01992637       0.00000000
H        0.49688490       0.32259323       0.94492441       0.26729760       0.06211577      -0.05802777       0.00000000
H        0.99191718       0.08936813       0.93253988      -0.10077416      -0.16364308      -0.03066480       0.00000000
H        0.40919760       0.45441144       0.92073114       0.04335271       0.19280401       0.11878348       0.00000000
H        0.15784613       0.98714972       0.80461901      -0.19565217       0.06476986       0.05445461       0.00000000
H        0.07365066       0.03852772       0.79677458       0.23930934      -0.10127575       0.04020806       0.00000000
H        0.38153673       0.12143236       0.82182297      -0.12767918       0.33062709      -0.01965262       0.00000000
H        0.20441810       0.15920611       0.67072202       0.14451671       0.13274995       0.11843868       0.00000000
H        0.42740280       0.25311173       0.80507419       0.07959504      -0.26207141       0.05793432       0.00000000
H        0.29558185       0.34080176       0.32927955      -0.14453016      -0.13287401      -0.11840342       0.00000000
H        0.42739444       0.25310442       0.30507020       0.07959786      -0.26190299       0.05791111       0.00000000
H        0.28853311       0.32365390       0.04676380      -0.20842181       0.15808568       0.04034866       0.00000000
H        0.37142266       0.13152127       0.07182063       0.35119669       0.05448335      -0.01999137       0.00000000
H        0.00311241       0.17740669       0.05507266      -0.26739874      -0.06220315       0.05819077       0.00000000
H        0.50809375       0.41063141       0.06745957       0.10082218       0.16382043       0.03063326       0.00000000
H        0.09080029       0.04558825       0.07926910      -0.04337821      -0.19279692      -0.11877616       0.00000000
H        0.34215151       0.51283817       0.19536764       0.19551020      -0.06473417      -0.05436876       0.00000000
H        0.42635750       0.46148074       0.20324020      -0.23904789       0.10120620      -0.04015834       0.00000000
H        0.11846100       0.37857199       0.17818666       0.12768955      -0.33070041       0.01963921       0.00000000
H        0.07260210       0.24688759       0.19492159      -0.07956918       0.26203251      -0.05794798       0.00000000
H        0.16063850       0.25808814       0.31745553       0.09035635       0.16835384       0.03046343       0.00000000
H        0.33936253       0.24191855       0.18253831      -0.09024638      -0.16823923      -0.03046484       0.00000000
H        0.26285668       0.09215403       0.44537435      -0.15530955       0.13826255      -0.05409249       0.00000000
H        0.21146315       0.17634526       0.45323327       0.20856850      -0.15809562      -0.04029561       0.00000000
H        0.12857412       0.36847397       0.42817682      -0.35105459      -0.05450627       0.01986499       0.00000000
H        0.49688376       0.32259216       0.44492631       0.26748845       0.06223340      -0.05817236       0.00000000
H        0.99190792       0.08937265       0.43253562      -0.10084750      -0.16364024      -0.03061268       0.00000000
H        0.40920351       0.45441379       0.42072842       0.04342970       0.19302701       0.11889256       0.00000000
H        0.15784484       0.98715302       0.30462650      -0.19545160       0.06470363       0.05442976       0.00000000
H        0.07364359       0.03851851       0.29676595       0.23894720      -0.10114635       0.04018893       0.00000000
H        0.38153781       0.12143127       0.32182693      -0.12768230       0.33055962      -0.01967962       0.00000000
H        0.20441851       0.15919228       0.17072426       0.14423919       0.13265220       0.11834453       0.00000000
H        0.16063646       0.25809228       0.81745519       0.09022837       0.16829721       0.03038974       0.00000000
H        0.29558035       0.34079513       0.82928059      -0.14432194      -0.13278911      -0.11843525       0.00000000
H        0.23713803       0.90783835       0.05463731       0.15548543      -0.13827321       0.05405947       0.00000000
H        0.37142666       0.63153192       0.57182163       0.35101523       0.05444962      -0.01991245       0.00000000
H        0.00311567       0.67740619       0.55507357      -0.26763110      -0.06225029       0.05822998       0.00000000
H        0.50808881       0.91063114       0.56746539       0.10076997       0.16373796       0.03064868       0.00000000
H        0.09080408       0.54558682       0.57927224      -0.04333358      -0.19271572      -0.11870729       0.00000000
H        0.34215593       0.01285025       0.69536712       0.19567027      -0.06483437      -0.05431934       0.00000000
H        0.42635081       0.96147689       0.70323568      -0.23930297       0.10117122      -0.04021667       0.00000000
H        0.11846710       0.87856965       0.67817640       0.12760461      -0.33069384       0.01970576       0.00000000
H        0.07260057       0.74688963       0.69492614      -0.07973433       0.26209770      -0.05790983       0.00000000
H        0.33936267       0.74191162       0.68254248      -0.09014195      -0.16812726      -0.03039931       0.00000000
H        0.28853171       0.82365046       0.54675746      -0.20851109       0.15819269       0.04027573       0.00000000
H        0.20441779       0.65920268       0.67072352       0.14425512       0.13273305       0.11837393       0.00000000
H        0.21146757       0.67634421       0.95323943       0.20848099      -0.15816069      -0.04031646       0.00000000
H        0.12857061       0.86846656       0.92816910      -0.35125978      -0.05448218       0.01995898       0.00000000
H        0.49688771       0.82260011       0.94492561       0.26737982       0.06224096      -0.05817372       0.00000000
H        0.99191337       0.58937354       0.93253904      -0.10088571      -0.16380218      -0.03068929       0.00000000
H        0.40919466       0.95441263       0.92073055       0.04330602       0.19294514       0.11878507       0.00000000
H        0.15784872       0.48715855       0.80463778      -0.19562707       0.06475303       0.05432333       0.00000000
H        0.07364384       0.53851621       0.79675500       0.23912616      -0.10119361       0.04018399       0.00000000
H        0.38153636       0.62142829       0.82181957      -0.12770050       0.33064337      -0.01970602       0.00000000
H        0.42739913       0.75311060       0.80507645       0.07957295      -0.26207615       0.05791692       0.00000000
H        0.26286396       0.59215744       0.94537236      -0.15531097       0.13822533      -0.05410014       0.00000000
H        0.23714660       0.90784562       0.55463152       0.15535411      -0.13826467       0.05406356       0.00000000
H        0.29558306       0.84081026       0.32927708      -0.14443026      -0.13282683      -0.11842953       0.00000000
H        0.16063931       0.75808086       0.31746065       0.09039884       0.16830870       0.03046344       0.00000000
H        0.28853351       0.82365442       0.04675063      -0.20854564       0.15818964       0.04034729       0.00000000
H        0.37143094       0.63152786       0.07184089       0.35083843       0.05448349      -0.01995827       0.00000000
H        0.00311023       0.67740926       0.05506743      -0.26748799      -0.06225305       0.05821030       0.00000000
H        0.50808483       0.91062340       0.06746641       0.10081627       0.16368765       0.03068437       0.00000000
H        0.09079302       0.54558930       0.07926978      -0.04336041      -0.19283706      -0.11887644       0.00000000
H        0.34215871       0.01285444       0.19536912       0.19565871      -0.06477178      -0.05442274       0.00000000
H        0.42635078       0.96147743       0.20323354      -0.23923511       0.10109915      -0.04033580       0.00000000
H        0.11846786       0.87856995       0.17818331       0.12767299      -0.33072959       0.01965653       0.00000000
H        0.07259643       0.74688436       0.19492239      -0.07957499       0.26210384      -0.05792687       0.00000000
H        0.33936109       0.74191182       0.18254772      -0.09029697      -0.16825824      -0.03040039       0.00000000
H        0.20441989       0.65920159       0.17071612       0.14449658       0.13288699       0.11841567       0.00000000
H        0.26285840       0.59215641       0.44536612      -0.15543565       0.13842224      -0.05405447       0.00000000
H        0.21146640       0.67634682       0.45324271       0.20874157      -0.15825271      -0.04037298       0.00000000
H        0.12857192       0.86847360       0.42817126      -0.35080120      -0.05429867       0.01987470       0.00000000
H        0.49689074       0.82260106       0.44492824       0.26736334       0.06212230      -0.05814175       0.00000000
H        0.99191514       0.58936985       0.43254006      -0.10087439      -0.16384511      -0.03066487       0.00000000
H        0.40920078       0.95441028       0.42073130       0.04339049       0.19284991       0.11882895       0.00000000
H        0.15784463       0.48715920       0.30463887      -0.19568403       0.06474595       0.05435154       0.00000000
H        0.07364331       0.53851986       0.29675335       0.23918130      -0.10124423       0.04019629       0.00000000
H        0.38153734       0.62142518       0.32181601      -0.12759714       0.33071286      -0.01960432       0.00000000
H        0.42739486       0.75310838       0.30507855       0.07959545      -0.26194432       0.05794149       0.00000000
H        0.66063352       0.75808673       0.81746456       0.09041849       0.16840733       0.03045197       0.00000000
H        0.79558570       0.84079929       0.82926962      -0.14459793      -0.13291283      -0.11839167       0.00000000
192
Lattice="6.22321522 0.0 0.0 -3.10548432 5.39298588 0.0 0.0 0.0 11.097194" Properties=species:S:1:pos:R:3:forces:R:3:energies:R:1 energy=-431.11190308 pbc="T T T"
H        0.25254591       0.41895222       0.05904943       0.21938987      -0.28733606       0.02394821       0.00000000
H        0.87457802       0.15390154       0.56301794       0.39524020      -0.00228113       0.00842816       0.00000000
H        0.50017748       0.16907831       0.56201895      -0.32513090      -0.04263144      -0.00735423       0.00000000
H        0.00130204       0.41315892       0.56583910       0.13159867       0.32626735      -0.02262809       0.00000000
H        0.60908334       0.04026156       0.57165614      -0.18914696      -0.36992075      -0.06465722       0.00000000
H        0.83105029       0.49745354       0.69095085       0.35787685      -0.04671759      -0.02405314       0.00000000
H        0.94533963       0.48895265       0.69649970      -0.41576339      -0.01751122      -0.05732657       0.00000000
H        0.59609703       0.37541783       0.68698281       0.19863587      -0.34018872      -0.00860284       0.00000000
H        0.58092293       0.24982671       0.68798094      -0.12493103       0.30178989       0.00727229       0.00000000
H        0.83683675       0.24869401       0.68416108      -0.21620903      -0.27582409       0.02272034       0.00000000
H        0.76104737       0.30465878       0.55350013      -0.19272060       0.36969650       0.05738706       0.00000000
H        0.70974103       0.14091946       0.67834401       0.22528813       0.34733907       0.06454398       0.00000000
H        0.73895243       0.19534155       0.94649971       0.19290235      -0.36999906      -0.05737784       0.00000000
H        0.62542181       0.34609751       0.93698269      -0.39529586       0.00233534      -0.00843993       0.00000000
H        0.99982224       0.33092100       0.93798137       0.32523707       0.04261073       0.00734202       0.00000000
H        0.49869855       0.08684123       0.93416110      -0.13164225      -0.32640661       0.02261993       0.00000000
H        0.89091696       0.45973862       0.92834354       0.18911639       0.36973145       0.06470980       0.00000000
H        0.66895039       0.00254709       0.80904920      -0.35795931       0.04660536       0.02408075       0.00000000
H        0.55466035       0.01104714       0.80350011       0.41575747       0.01738019       0.05742385       0.00000000
H        0.90390261       0.12458181       0.81301726      -0.19862715       0.34020601       0.00861965       0.00000000
H        0.91907776       0.25017372       0.81201905       0.12492803      -0.30179378      -0.00729261       0.00000000
H        0.74745444       0.08104718       0.94095096      -0.21974406       0.28766842      -0.02397175       0.00000000
H        0.66316300       0.25130468       0.81583900       0.21631527       0.27595652      -0.02272587       0.00000000
H        0.75254555       0.41895223       0.55904889       0.21959030      -0.28745011       0.02399606       0.00000000
H        0.66316369       0.25130511       0.31583917       0.21613503       0.27586182      -0.02270015       0.00000000
H        0.87457848       0.15390267       0.06301751       0.39530451      -0.00231651       0.00845945       0.00000000
H        0.50017779       0.16907904       0.06201887      -0.32532328      -0.04267514      -0.00739368       0.00000000
H        0.00130302       0.41315916       0.06583919       0.13152500       0.32629550      -0.02265076       0.00000000
H        0.60908372       0.04026223       0.07165606      -0.18927455      -0.36989675      -0.06469460       0.00000000
H        0.83105086       0.49745364       0.19095089       0.35772958      -0.04672737      -0.02415333       0.00000000
H        0.94533983       0.48895267       0.19649947      -0.41568131      -0.01746810      -0.05738233       0.00000000
H        0.59609584       0.37541732       0.18698243       0.19876006      -0.34017909      -0.00856902       0.00000000
H        0.58092245       0.24982629       0.18798082      -0.12496329       0.30184260       0.00736346       0.00000000
H        0.83683699       0.24869467       0.18416120      -0.21629996      -0.27587515       0.02268031       0.00000000
H        0.79025877       0.35908077       0.32165633      -0.22526120      -0.34736933      -0.06454630       0.00000000
H        0.70974110       0.14091995       0.17834363       0.22538586       0.34745911       0.06457086       0.00000000
H        0.73895194       0.19534086       0.44649934       0.19277415      -0.36987015      -0.05731191       0.00000000
H        0.62542165       0.34609812       0.43698201      -0.39527546       0.00223159      -0.00848843       0.00000000
H        0.99982197       0.33092167       0.43798114       0.32536573       0.04260103       0.00737194       0.00000000
H        0.49869860       0.08684134       0.43416100      -0.13158458      -0.32629891       0.02264022       0.00000000
H        0.89091608       0.45973801       0.42834394       0.18923915       0.36970268       0.06467825       0.00000000
H        0.66895066       0.00254762       0.30904896      -0.35803550       0.04660720       0.02411389       0.00000000
H        0.55466047       0.01104775       0.30350011       0.41579031       0.01738257       0.05739668       0.00000000
H        0.90390219       0.12458182       0.31301739      -0.19854354       0.34020845       0.00855422       0.00000000
H        0.91907755       0.25017354       0.31201926       0.12489390      -0.30172936      -0.00732027       0.00000000
H        0.74745396       0.08104720       0.44095076      -0.21973510       0.28748829      -0.02393253       0.00000000
H        0.76104727       0.30465833       0.05350063      -0.19281575       0.36987673       0.05737551       0.00000000
H        0.79025824       0.35908039       0.82165646      -0.22530455      -0.34742707      -0.06462042       0.00000000
H        0.76104783       0.80465957       0.05350019      -0.19283953       0.36977455       0.05741060       0.00000000
H        0.87457793       0.65390153       0.56301785       0.39535727      -0.00222806       0.00842811       0.00000000
H        0.50017734       0.66907775       0.56201897      -0.32516092      -0.04258542      -0.00741382       0.00000000