192
Lattice="6.22321522 0.0 0.0 -3.10548432 5.39298588 0.0 0.0 0.0 11.097194" Properties=species:S:1:pos:R:3:forces:R:3:energies:R:1 energy=-431.34507038 pbc="T T T"
H        0.23593323       0.40720155       0.05470836       0.24936094      -0.16051268       0.02786352       0.00000000
H        0.87155762       0.13042339       0.57252886       0.46498042       0.08504285      -0.07067879       0.00000000
H        0.50407662       0.17842845       0.55461355      -0.39212458      -0.14951527       0.10042146       0.00000000
H        0.00820842       0.40966747       0.56756823       0.10261332       0.36281525       0.07603012       0.00000000
H        0.59081874       0.04635636       0.57901525      -0.08407153      -0.36979045      -0.12929465       0.00000000
H        0.84279798       0.51405649       0.69528558       0.26266995      -0.13550067      -0.02794940       0.00000000
H        0.92568806       0.46035134       0.70344191      -0.33041841       0.12118822      -0.04808277       0.00000000
H        0.61956821       0.37844151       0.67747640       0.15821894      -0.44477527       0.07046496       0.00000000
H        0.57158040       0.24592608       0.69538962      -0.06615105       0.41409419      -0.10032654       0.00000000
H        0.84032964       0.24179235       0.68242888      -0.26272621      -0.26974269      -0.07590569       0.00000000
H        0.78965194       0.32431237       0.54654983      -0.27069812       0.22656226       0.04809907       0.00000000
H        0.70365115       0.15918015       0.67098067       0.27805072       0.25683472       0.12910157       0.00000000
H        0.71035035       0.17569087       0.95344848       0.27095977      -0.22679075      -0.04818700       0.00000000
H        0.62844550       0.36957669       0.92747762      -0.46484887      -0.08494238       0.07053367       0.00000000
H        0.99591800       0.32156623       0.94538384       0.39198893       0.14942804      -0.10043332       0.00000000
H        0.49179628       0.09033358       0.93243208      -0.10263227      -0.36300772      -0.07601916       0.00000000
H        0.90918937       0.45364957       0.92098331       0.08405588       0.36986798       0.12935392       0.00000000
H        0.65720737       0.98595498       0.80471546      -0.26237028       0.13541037       0.02799600       0.00000000
H        0.57430196       0.03963674       0.79654863       0.33001703      -0.12098176       0.04806478       0.00000000
H        0.88043426       0.12155566       0.82252021      -0.15817079       0.44486682      -0.07044922       0.00000000
H        0.92841317       0.25407191       0.80461249       0.06616511      -0.41413088       0.10029821       0.00000000
H        0.76405878       0.09279410       0.94529198      -0.24975857       0.16080071      -0.02781792       0.00000000
H        0.65967418       0.25820047       0.81757191       0.26274510       0.26975291       0.07598230       0.00000000
H        0.73593725       0.40720058       0.55470987       0.24948981      -0.16055780       0.02781067       0.00000000
H        0.65967366       0.25820080       0.31757359       0.26281077       0.26984345       0.07605375       0.00000000
H        0.87155410       0.13042163       0.07252667       0.46488249       0.08498701      -0.07059658       0.00000000
H        0.50407982       0.17843500       0.05461575      -0.39229211      -0.14964513       0.10044778       0.00000000
H        0.00821358       0.40966309       0.06757193       0.10256277       0.36294630       0.07606951       0.00000000
H        0.59081130       0.04635109       0.07901050      -0.08409762      -0.36998447      -0.12933796       0.00000000
H        0.84279328       0.51405511       0.19529498       0.26244784      -0.13541618      -0.02808511       0.00000000
H        0.92568813       0.46035356       0.20343493      -0.33009102       0.12109086      -0.04806119       0.00000000
H        0.61956200       0.37843462       0.17747275       0.15813910      -0.44436388       0.07042724       0.00000000
H        0.57158263       0.24592705       0.19539187      -0.06615605       0.41363368      -0.10021638       0.00000000
H        0.84032468       0.24178450       0.18243918      -0.26279937      -0.26977953      -0.07604373       0.00000000
H        0.79635187       0.34083051       0.32901698      -0.27812448      -0.25690653      -0.12908375       0.00000000
H        0.70365295       0.15918173       0.17096894       0.27815766       0.25692345       0.12912433       0.00000000
H        0.71034788       0.17568768       0.45344271       0.27089170      -0.22670285      -0.04813261       0.00000000
H        0.62844441       0.36957839       0.42747835      -0.46485473      -0.08491830       0.07055952       0.00000000
H        0.99592167       0.32157164       0.44538536       0.39203328       0.14951423      -0.10049371       0.00000000
H        0.49179235       0.09033294       0.43243146      -0.10257742      -0.36291691      -0.07601807       0.00000000
H        0.90918172       0.45364687       0.42098291       0.08413800       0.37018970       0.12937959       0.00000000
H        0.65720272       0.98595426       0.30472188      -0.26242796       0.13535782       0.02797864       0.00000000
H        0.57430516       0.03964226       0.29654405       0.33003587      -0.12109188       0.04805702       0.00000000
H        0.88043025       0.12155230       0.32251431      -0.15811736       0.44471260      -0.07036245       0.00000000
H        0.92842092       0.25407563       0.30461695       0.06617196      -0.41391598       0.10022218       0.00000000
H        0.76406200       0.09279541       0.44529373      -0.24965724       0.16072962      -0.02785253       0.00000000
H        0.78965697       0.32431735       0.04655209      -0.27088666       0.22680130       0.04814238       0.00000000
H        0.79634923       0.34083360       0.82901936      -0.27798926      -0.25691139      -0.12909791       0.00000000
H        0.78965247       0.82431397       0.04654966      -0.27073306       0.22656946       0.04815720       0.00000000
H        0.87155358       0.63042142       0.57252036       0.46507702       0.08506973      -0.07063152       0.00000000
H        0.50407840       0.67842770       0.55461696      -0.39193317      -0.14947847       0.10041305       0.00000000
H        0.00821471       0.90966926       0.56756538       0.10266655       0.36309887       0.07610034       0.00000000
H        0.59082356       0.54634939       0.57901787      -0.08408232      -0.36970933      -0.12926029       0.00000000
H        0.84279712       0.01404572       0.69528368       0.26215404      -0.13528033      -0.02802411       0.00000000
H        0.92569585       0.96035886       0.70345369      -0.32974828       0.12099842      -0.04797985       0.00000000
H        0.61957225       0.87844421       0.67747993       0.15804895      -0.44464562       0.07044380       0.00000000
H        0.57158210       0.74592697       0.69538812      -0.06617497       0.41390418      -0.10023547       0.00000000
H        0.84032800       0.74179774       0.68242366      -0.26259253      -0.26968436      -0.07595332       0.00000000
H        0.78965876       0.82431846       0.54656031      -0.27090119       0.22671724       0.04814094       0.00000000
H        0.70364872       0.65917531       0.67098496       0.27795037       0.25670507       0.12906800       0.00000000
H        0.71035170       0.67568932       0.95344894       0.27094833      -0.22675110      -0.04815262       0.00000000
H        0.62844697       0.86957480       0.92747745      -0.46493097      -0.08498201       0.07055352       0.00000000
H        0.99592763       0.82157955       0.94539027       0.39205288       0.14955387      -0.10054221       0.00000000
H        0.49179615       0.59033409       0.93242858      -0.10260045      -0.36300918      -0.07606305       0.00000000
H        0.90917499       0.95364936       0.92097915       0.08417185       0.36992616       0.12936650       0.00000000
H        0.65720340       0.48594619       0.80470900      -0.26235904       0.13531848       0.02802027       0.00000000
H        0.57430947       0.53964482       0.79655702       0.33001107      -0.12107365       0.04798198       0.00000000
H        0.88043116       0.62155749       0.82252260      -0.15810982       0.44459232      -0.07037355       0.00000000
H        0.92842073       0.75407126       0.80461010       0.06618434      -0.41377884       0.10027488       0.00000000
H        0.76406051       0.59279500       0.94528738      -0.24968026       0.16077267      -0.02777130       0.00000000
H        0.73593690       0.90719963       0.05471669       0.24944842      -0.16058457       0.02784775       0.00000000
H        0.73593282       0.90720208       0.55470559       0.24970570      -0.16071066       0.02782685       0.00000000
H        0.65967251       0.75821035       0.31756555       0.26281337       0.26978569       0.07593854       0.00000000
H        0.87155446       0.63041799       0.07253112       0.46510013       0.08510515      -0.07076698       0.00000000
H        0.50406625       0.67842426       0.05460147      -0.39200619      -0.14940713       0.10063409       0.00000000
H        0.00820476       0.90966620       0.06756968       0.10261931       0.36289784       0.07604030       0.00000000
H        0.59081059       0.54635574       0.07901868      -0.08403520      -0.36990684      -0.12934995       0.00000000
H        0.84279257       0.01404432       0.19528779       0.26231197      -0.13526148      -0.02805236       0.00000000
H        0.92569385       0.96035637       0.20344688      -0.32992454       0.12107947      -0.04798996       0.00000000
H        0.61956816       0.87844946       0.17748829       0.15811720      -0.44471904       0.07031683       0.00000000
H        0.57158098       0.74592618       0.19538307      -0.06611514       0.41384621      -0.10020156       0.00000000
H        0.84032739       0.74179867       0.18242759      -0.26281745      -0.26982879      -0.07599130       0.00000000
H        0.79634711       0.84081657       0.32902661      -0.27812368      -0.25695288      -0.12915633       0.00000000
H        0.70364886       0.65917247       0.17098309       0.27806489       0.25687619       0.12905859       0.00000000
H        0.71034578       0.67568420       0.45346100       0.27105928      -0.22692796      -0.04823240       0.00000000
H        0.62844427       0.86957311       0.42747143      -0.46463317      -0.08490417       0.07053738       0.00000000
H        0.99592517       0.82156934       0.44538814       0.39182001       0.14941740      -0.10039352       0.00000000
H        0.49179243       0.59033862       0.43243173      -0.10252358      -0.36323541      -0.07607268       0.00000000
H        0.90918851       0.95364699       0.42098523       0.08404265       0.36973082       0.12936341       0.00000000
H        0.65719878       0.48593850       0.30470898      -0.26247541       0.13538950       0.02806809       0.00000000
H        0.57431189       0.53964670       0.29656002       0.33012029      -0.12110653       0.04805329       0.00000000
H        0.88043324       0.62155739       0.32252008      -0.15814333       0.44465918      -0.07035111       0.00000000
H        0.92842057       0.75407303       0.30461085       0.06617080      -0.41378849       0.10027169       0.00000000
H        0.76406497       0.59280231       0.44527744      -0.24991887       0.16079503      -0.02768490       0.00000000
H        0.73593559       0.40720233       0.05470967       0.24983036      -0.16069216       0.02776110       0.00000000
H        0.29635090       0.84082643       0.82902212      -0.27816649      -0.25693665      -0.12914015       0.00000000
H        0.15967594       0.75820195       0.81756895       0.26280283       0.26980004       0.07603893       0.00000000
H        0.28965261       0.32431613       0.54653803      -0.27077908       0.22655940       0.04817623       0.00000000
H        0.37155383       0.13042568       0.57252459       0.46483017       0.08498955      -0.07060205       0.00000000
H        0.00407826       0.17842938       0.55461041      -0.39226431      -0.14956207       0.10049563       0.00000000
H        0.50820122       0.40966711       0.56757181       0.10257107       0.36294389       0.07601222       0.00000000
H        0.09081430       0.04635411       0.57901996      -0.08403829      -0.36991495      -0.12938855       0.00000000
H        0.34280618       0.51406358       0.69528423       0.26214708      -0.13535033      -0.02805286       0.00000000
H        0.42567969       0.46034605       0.70344971      -0.32981910       0.12102049      -0.04801176       0.00000000
H        0.11957604       0.37844801       0.67748651       0.15817601      -0.44487556       0.07045207       0.00000000
H        0.07157183       0.24592102       0.69538327      -0.06616420       0.41407064      -0.10023179       0.00000000
H        0.23593875       0.40719967       0.55472136       0.24949954      -0.16061791       0.02778897       0.00000000
H        0.34032919       0.24179080       0.68243331      -0.26271782      -0.26976762      -0.07601319       0.00000000
H        0.26405325       0.09279100       0.94528559      -0.24946567       0.16062259      -0.02780225       0.00000000
H        0.21035386       0.17569028       0.95345434       0.27075183      -0.22655216      -0.04812685       0.00000000
H        0.12844323       0.36957905       0.92747574      -0.46475402      -0.08500472       0.07053834       0.00000000
H        0.49592060       0.32157043       0.94538528       0.39209269       0.14951476      -0.10043354       0.00000000
H        0.99179522       0.09033174       0.93243122      -0.10259806      -0.36312768      -0.07608409       0.00000000
H        0.40917996       0.45364816       0.92098616       0.08409805       0.36973753       0.12933864       0.00000000
H        0.15720298       0.98594089       0.80469972      -0.26221130       0.13531591       0.02815983       0.00000000
H        0.07431663       0.03965261       0.79656774       0.32992353      -0.12103868       0.04795021       0.00000000
H        0.38043310       0.12155831       0.82252162      -0.15824793       0.44487481      -0.07044475       0.00000000
H        0.20365321       0.15918776       0.67097592       0.27809068       0.25680340       0.12917572       0.00000000
H        0.42842582       0.25407690       0.80461309       0.06617535      -0.41410197       0.10034701       0.00000000
H        0.29634729       0.34082066       0.32902631      -0.27822597      -0.25702923      -0.12915892       0.00000000
H        0.42841717       0.25406933       0.30460900       0.06619336      -0.41389428       0.10032247       0.00000000
H        0.28965799       0.32432129       0.04655646      -0.27066387       0.22647672       0.04811136       0.00000000
H        0.37154952       0.13041629       0.07251895       0.46501258       0.08504081      -0.07061888       0.00000000
H        0.00407626       0.17842941       0.05461200      -0.39214263      -0.14957366       0.10051926       0.00000000
H        0.50821709       0.40966847       0.06756829       0.10257132       0.36312783       0.07606168       0.00000000
H        0.09081738       0.04635093       0.07901415      -0.08405152      -0.36967009      -0.12930344       0.00000000
H        0.34279472       0.51404584       0.19528612       0.26209269      -0.13528595      -0.02801354       0.00000000
H        0.42569269       0.46035630       0.20344815      -0.32975290       0.12103967      -0.04795575       0.00000000
H        0.11956445       0.37844550       0.17748879       0.15819808      -0.44469817       0.07035731       0.00000000
H        0.07157936       0.24592207       0.19538204      -0.06612752       0.41389840      -0.10021283       0.00000000
H        0.15967329       0.25820925       0.31756368       0.26288081       0.26989114       0.07603854       0.00000000
H        0.34032725       0.24179805       0.18242958      -0.26267865      -0.26974558      -0.07600361       0.00000000
H        0.26406530       0.09279786       0.44529365      -0.24951976       0.16059139      -0.02781268       0.00000000
H        0.21033820       0.17567858       0.45344047       0.27080716      -0.22661340      -0.04809032       0.00000000
H        0.12844713       0.36957870       0.42747819      -0.46484137      -0.08498261       0.07055800       0.00000000
H        0.49591981       0.32156942       0.44538686       0.39216727       0.14959692      -0.10047080       0.00000000
H        0.99178456       0.09033595       0.43242650      -0.10261547      -0.36297874      -0.07600293       0.00000000
H        0.40918681       0.45365114       0.42098316       0.08416984       0.37011779       0.12942725       0.00000000
H        0.15720161       0.98594459       0.30470773      -0.26196713       0.13523144       0.02812450       0.00000000
H        0.07430892       0.03964256       0.29655863       0.32962064      -0.12091086       0.04796070       0.00000000
H        0.38043448       0.12155838       0.32252591      -0.15819954       0.44470255      -0.07047095       0.00000000
H        0.20365322       0.15917292       0.17097819       0.27787244       0.25679408       0.12905066       0.00000000
H        0.15967153       0.25821446       0.81756313       0.26268372       0.26976567       0.07596947       0.00000000
H        0.29634549       0.34081298       0.82902710      -0.27800164      -0.25683440      -0.12916220       0.00000000
H        0.23592951       0.90719379       0.05471897       0.24958207      -0.16056517       0.02778005       0.00000000
H        0.37155401       0.63042801       0.57251995       0.46467628       0.08490748      -0.07050256       0.00000000
H        0.00407980       0.67842915       0.55461301      -0.39232683      -0.14966605       0.10055483       0.00000000
H        0.50821206       0.90966845       0.56757457       0.10253890       0.36297054       0.07608067       0.00000000
H        0.09082134       0.54634960       0.57901778      -0.08410551      -0.36966925      -0.12932950       0.00000000
H        0.34279933       0.01405926       0.69528562       0.26237522      -0.13542383      -0.02799955       0.00000000
H        0.42568515       0.96035174       0.70344309      -0.33007003       0.12100596      -0.04805036       0.00000000
H        0.11957092       0.87844294       0.67747766       0.15810714      -0.44471489       0.07042851       0.00000000
H        0.07157751       0.74592495       0.69538712      -0.06624294       0.41392030      -0.10027257       0.00000000
H        0.34032719       0.74178963       0.68243425      -0.26258865      -0.26958840      -0.07595242       0.00000000
H        0.28965663       0.82431688       0.54654932      -0.27084184       0.22660999       0.04808378       0.00000000
H        0.20365235       0.65918430       0.67097732       0.27792636       0.25678585       0.12912870       0.00000000
H        0.21034195       0.67567729       0.95344707       0.27088410      -0.22673733      -0.04815766       0.00000000
H        0.12844272       0.86957049       0.92747024      -0.46481758      -0.08491065       0.07057818       0.00000000
H        0.49592351       0.82157798       0.94538608       0.39219456       0.14957514      -0.10052416       0.00000000
H        0.99179024       0.59033680       0.93243002      -0.10263370      -0.36305410      -0.07605494       0.00000000
H        0.40917670       0.95364959       0.92098538       0.08409321       0.36985914       0.12934094       0.00000000
H        0.15720589       0.48595029       0.80471974      -0.26240025       0.13540882       0.02794924       0.00000000
H        0.07430905       0.53964084       0.79654678       0.33000051      -0.12103527       0.04801639       0.00000000
H        0.38043245       0.62155462       0.82251788      -0.15816856       0.44478660      -0.07044309       0.00000000
H        0.42842155       0.75407586       0.80461592       0.06619530      -0.41403421       0.10025038       0.00000000
H        0.26407283       0.59280108       0.94529131      -0.24968710       0.16073660      -0.02777911       0.00000000
H        0.23593842       0.90720201       0.55471289       0.24958827      -0.16069426       0.02775730       0.00000000
H        0.29634874       0.84083016       0.32902318      -0.27812792      -0.25698632      -0.12914630       0.00000000
H        0.15967447       0.75820127       0.31756901       0.26285246       0.26983805       0.07599297       0.00000000
H        0.28965833       0.82432134       0.04654202      -0.27072726       0.22659908       0.04815606       0.00000000
H        0.37155839       0.63042346       0.07254060       0.46476261       0.08504144      -0.07073172       0.00000000
H        0.00407407       0.67843218       0.05460635      -0.39242343      -0.14969561       0.10060919       0.00000000
H        0.50820697       0.90965920       0.06757581       0.10260134       0.36309856       0.07607134       0.00000000
H        0.09080956       0.54635216       0.07901453      -0.08403682      -0.36976768      -0.12940366       0.00000000
H        0.34280209       0.01406422       0.19528759       0.26241632      -0.13546463      -0.02806128       0.00000000
H        0.42568515       0.96035212       0.20344052      -0.33012418       0.12100860      -0.04810955       0.00000000
H        0.11957185       0.87844350       0.17748492       0.15818003      -0.44489184       0.07041725       0.00000000
H        0.07157324       0.74591879       0.19538301      -0.06614620       0.41408438      -0.10025203       0.00000000
H        0.34032669       0.74179038       0.18244016      -0.26283901      -0.26977473      -0.07598997       0.00000000
H        0.20365483       0.65918297       0.17096924       0.27815003       0.25702991       0.12920502       0.00000000
H        0.26406732       0.59280009       0.44528473      -0.24979128       0.16080203      -0.02774153       0.00000000
H        0.21034168       0.67568018       0.45345062       0.27107695      -0.22679732      -0.04819609       0.00000000
H        0.12844470       0.86957839       0.42747236      -0.46459854      -0.08484849       0.07050426       0.00000000
H        0.49592746       0.82157895       0.44538894       0.39192926       0.14936861      -0.10041921       0.00000000
H        0.99179309       0.59033359       0.43243143      -0.10263904      -0.36335639      -0.07608408       0.00000000
H        0.40918407       0.95364737       0.42098628       0.08399947       0.36971265       0.12931832       0.00000000
H        0.15720124       0.48595132       0.30472111      -0.26229294       0.13533161       0.02799084       0.00000000
H        0.07430851       0.53964433       0.29654500       0.32988731      -0.12105062       0.04800143       0.00000000
H        0.38043368       0.62155150       0.32251403      -0.15809652       0.44465999      -0.07036092       0.00000000
H        0.42841709       0.75407346       0.30461822       0.06616379      -0.41379144       0.10017248       0.00000000
H        0.65966875       0.75820856       0.81757332       0.26279462       0.26979301       0.07591683       0.00000000
H        0.79635038       0.84081730       0.82901532      -0.27813370      -0.25689626      -0.12909059       0.00000000
192
Lattice="6.22321522 0.0 0.0 -3.10548432 5.39298588 0.0 0.0 0.0 11.097194" Properties=species:S:1:pos:R:3:forces:R:3:energies:R:1 energy=-430.98911445 pbc="T T T"
H        0.24971718       0.41516124       0.06268412      -0.25648048       0.26917523      -0.07081424       0.00000000
H        0.87575636       0.14558083       0.56656354      -0.50947239      -0.08552261       0.03088877       0.00000000
H        0.50239879       0.17621937       0.55921749       0.37564984       0.06214080      -0.03574823       0.00000000
H        0.00799158       0.41019619       0.56179290      -0.10220557      -0.32068207       0.04703950       0.00000000
H        0.59762770       0.03824938       0.57270352       0.14582064       0.47251161       0.19143896       0.00000000
H        0.83483574       0.50028107       0.68731130      -0.35958137       0.08764531       0.07117569       0.00000000
H        0.93791131       0.48104094       0.69779160       0.46213288      -0.03651671       0.14884776       0.00000000
H        0.60441712       0.37424575       0.68343719      -0.17973876       0.48344794      -0.03064659       0.00000000
H        0.57378111       0.24759693       0.69078261       0.13346378      -0.35569433       0.03577903       0.00000000
H        0.83980820       0.24201193       0.68820740       0.22580131       0.24763991      -0.04724441       0.00000000
H        0.76896032       0.31209412       0.55220952       0.26338165      -0.38378756      -0.14913276       0.00000000
H        0.71174887       0.15236893       0.67729674      -0.33565689      -0.36112588      -0.19112432       0.00000000
H        0.73104208       0.18790607       0.94779094      -0.26361857       0.38413242       0.14914282       0.00000000
H        0.62424408       0.35441755       0.93343801       0.50957186       0.08551951      -0.03082154       0.00000000
H        0.99760023       0.32378101       0.94078133      -0.37593468      -0.06228123       0.03578615       0.00000000
H        0.49201065       0.08980457       0.93820840       0.10227352       0.32072232      -0.04703073       0.00000000
H        0.90237528       0.46175191       0.92729656      -0.14581206      -0.47253507      -0.19140792       0.00000000
H        0.66516458       0.99971922       0.81268992       0.35969916      -0.08759430      -0.07117806       0.00000000
H        0.56208809       0.01895674       0.80220736      -0.46221804       0.03653975      -0.14896306       0.00000000
H        0.89558343       0.12575567       0.81656297       0.17975701      -0.48362495       0.03071450       0.00000000
H        0.92621614       0.25240245       0.80921724      -0.13355790       0.35589298      -0.03570756       0.00000000
H        0.75028251       0.08483917       0.93731367       0.25667799      -0.26945297       0.07081768       0.00000000
H        0.66019422       0.25798611       0.81179181      -0.22572377      -0.24768687       0.04724358       0.00000000
H        0.74971522       0.41515971       0.56268666      -0.25653843       0.26922235      -0.07086293       0.00000000
H        0.66019373       0.25798514       0.31179279      -0.22582045      -0.24764442       0.04721278       0.00000000
H        0.87575506       0.14558162       0.06656306      -0.50937227      -0.08556154       0.03086850       0.00000000
H        0.50239988       0.17622079       0.05921868       0.37595101       0.06225389      -0.03578012       0.00000000
H        0.00799616       0.41019600       0.06179163      -0.10228174      -0.32088030       0.04700336       0.00000000
H        0.59762643       0.03825019       0.07270168       0.14586049       0.47272511       0.19146771       0.00000000
H        0.83483467       0.50028235       0.18731293      -0.35945797       0.08750436       0.07128747       0.00000000
H        0.93791428       0.48104488       0.19778858       0.46196719      -0.03665537       0.14885195       0.00000000
H        0.60441588       0.37424486       0.18343651      -0.17970054       0.48333710      -0.03071454       0.00000000
H        0.57377908       0.24759579       0.19078423       0.13348096      -0.35554286       0.03572515       0.00000000
H        0.83980690       0.24201085       0.18821037       0.22585658       0.24772414      -0.04714200       0.00000000
H        0.78825179       0.34763278       0.32270332       0.33572447       0.36122982       0.19113388       0.00000000
H        0.71174979       0.15237043       0.17729377      -0.33568502      -0.36122766      -0.19118908       0.00000000
H        0.73104018       0.18790630       0.44778984      -0.26347767       0.38385507       0.14906466       0.00000000
H        0.62424361       0.35441965       0.43343740       0.50954743       0.08559572      -0.03084511       0.00000000
H        0.99760196       0.32378341       0.44078194      -0.37591328      -0.06228029       0.03579808       0.00000000
H        0.49200785       0.08980240       0.43820947       0.10228265       0.32078465      -0.04703391       0.00000000
H        0.90237523       0.46175296       0.42729703      -0.14589810      -0.47256019      -0.19138659       0.00000000
H        0.66516520       0.99971925       0.31268939       0.35962906      -0.08755882      -0.07116454       0.00000000
H        0.56208895       0.01895720       0.30220757      -0.46227816       0.03656068      -0.14892461       0.00000000
H        0.89558241       0.12575353       0.31656254       0.17973409      -0.48333396       0.03068544       0.00000000
H        0.92621955       0.25240354       0.30921791      -0.13343769       0.35566925      -0.03567707       0.00000000
H        0.75028297       0.08483889       0.43731497       0.25652451      -0.26924722       0.07082781       0.00000000
H        0.76896142       0.31209469       0.05220960       0.26340555      -0.38371812      -0.14912507       0.00000000
H        0.78825109       0.34763500       0.82270461       0.33560844       0.36111485       0.19114190       0.00000000
H        0.76895982       0.81209278       0.05220828       0.26339504      -0.38388856      -0.14915909       0.00000000
H        0.87575627       0.64558095       0.56656332      -0.50946096      -0.08553029       0.03086066       0.00000000
H        0.50239998       0.67622015       0.55921808       0.37571687       0.06214635      -0.03575534       0.00000000